
     Program PWSCF v.7.1 starts on 19Jan2024 at 17:28:52 

     This program is part of the open-source Quantum ESPRESSO suite
     for quantum simulation of materials; please cite
         "P. Giannozzi et al., J. Phys.:Condens. Matter 21 395502 (2009);
         "P. Giannozzi et al., J. Phys.:Condens. Matter 29 465901 (2017);
         "P. Giannozzi et al., J. Chem. Phys. 152 154105 (2020);
          URL http://www.quantum-espresso.org", 
     in publications or presentations arising from this work. More details at
     http://www.quantum-espresso.org/quote

     Parallel version (MPI), running on    75 processors

     MPI processes distributed on     1 nodes
     349732 MiB available memory on the printing compute node when the environment starts

     Reading input from ecut.500.in

     Current dimensions of program PWSCF are:
     Max number of different atomic species (ntypx) = 10
     Max number of k-points (npk) =  40000
     Max angular momentum in pseudopotentials (lmaxx) =  4
     Message from routine setup:
     using ibrav=0 with symmetry is DISCOURAGED, use correct ibrav instead

     R & G space division:  proc/nbgrp/npool/nimage =      75
     Subspace diagonalization in iterative solution of the eigenvalue problem:
     a serial algorithm will be used


     Parallelization info
     --------------------
     sticks:   dense  smooth     PW     G-vecs:    dense   smooth      PW
     Min          83      83     22                21825    21825    2974
     Max          84      84     23                21858    21858    2989
     Sum        6283    6283   1663              1638141  1638141  223511

     Using Slab Decomposition



     bravais-lattice index     =            0
     lattice parameter (alat)  =       4.9702  a.u.
     unit-cell volume          =    1084.4437 (a.u.)^3
     number of atoms/cell      =            8
     number of atomic types    =            2
     number of electrons       =        44.00
     number of Kohn-Sham states=           26
     kinetic-energy cutoff     =     500.0000  Ry
     charge density cutoff     =    2000.0000  Ry
     scf convergence threshold =      1.0E-08
     mixing beta               =       0.7000
     number of iterations used =            8  plain     mixing
     Exchange-correlation=  SLA  PW   PBX  PBC
                           (   1   4   3   4   0   0   0)

     celldm(1)=   4.970237  celldm(2)=   0.000000  celldm(3)=   0.000000
     celldm(4)=   0.000000  celldm(5)=   0.000000  celldm(6)=   0.000000

     crystal axes: (cart. coord. in units of alat)
               a(1) = (   1.000000   0.000000   0.000000 )  
               a(2) = (   0.000000   1.594189   0.000000 )  
               a(3) = (   0.000000   0.000000   5.540333 )  

     reciprocal axes: (cart. coord. in units 2 pi/alat)
               b(1) = (  1.000000  0.000000  0.000000 )  
               b(2) = (  0.000000  0.627278  0.000000 )  
               b(3) = (  0.000000  0.000000  0.180495 )  


     PseudoPot. # 1 for C  read from file:
     ../pseudo/c_pbe_v1.2.uspp.F.UPF
     MD5 check sum: d1aef80898a10debaa0f26306b886e00
     Pseudo is Ultrasoft + core correction, Zval =  4.0
     Generated by new atomic code, or converted to UPF format
     Using radial grid of  721 points,  4 beta functions with: 
                l(1) =   0
                l(2) =   0
                l(3) =   1
                l(4) =   1
     Q(r) pseudized with  8 coefficients,  rinner =    1.100   1.100   1.100


     PseudoPot. # 2 for F  read from file:
     ../pseudo/f_pbe_v1.4.uspp.F.UPF
     MD5 check sum: 4c38b6a325caf53ec0e86aed9459de46
     Pseudo is Ultrasoft, Zval =  7.0
     Generated by new atomic code, or converted to UPF format
     Using radial grid of  799 points,  4 beta functions with: 
                l(1) =   0
                l(2) =   0
                l(3) =   1
                l(4) =   1
     Q(r) pseudized with  8 coefficients,  rinner =    0.950   0.950   0.950


     atomic species   valence    mass     pseudopotential
        C              4.00    12.01070     C ( 1.00)
        F              7.00    18.99840     F ( 1.00)

      8 Sym. Ops., with inversion, found ( 4 have fractional translation)



   Cartesian axes

     site n.     atom                  positions (alat units)
         1           C   tau(   1) = (   0.5000000   0.2256478   0.1937169  )
         2           C   tau(   2) = (   0.0000000   1.0227422  -0.1937169  )
         3           C   tau(   3) = (   0.0000000   0.5714467   0.1937169  )
         4           C   tau(   4) = (   0.5000000   1.3685411  -0.1937169  )
         5           F   tau(   5) = (   0.5000000  -0.0095812  -0.6719762  )
         6           F   tau(   6) = (   0.0000000   0.7875132   0.6719762  )
         7           F   tau(   7) = (   0.0000000   0.8066757  -0.6719762  )
         8           F   tau(   8) = (   0.5000000   0.0095812   0.6719762  )

     number of k points=    25  Marzari-Vanderbilt smearing, width (Ry)=  0.0200
                       cart. coord. in units 2pi/alat
        k(    1) = (   0.0000000   0.0000000   0.0000000), wk =   0.0246914
        k(    2) = (   0.0000000   0.0696976   0.0000000), wk =   0.0493827
        k(    3) = (   0.0000000   0.1393952   0.0000000), wk =   0.0493827
        k(    4) = (   0.0000000   0.2090927   0.0000000), wk =   0.0493827
        k(    5) = (   0.0000000   0.2787903   0.0000000), wk =   0.0493827
        k(    6) = (   0.1111111   0.0000000   0.0000000), wk =   0.0493827
        k(    7) = (   0.1111111   0.0696976   0.0000000), wk =   0.0987654
        k(    8) = (   0.1111111   0.1393952   0.0000000), wk =   0.0987654
        k(    9) = (   0.1111111   0.2090927   0.0000000), wk =   0.0987654
        k(   10) = (   0.1111111   0.2787903   0.0000000), wk =   0.0987654
        k(   11) = (   0.2222222   0.0000000   0.0000000), wk =   0.0493827
        k(   12) = (   0.2222222   0.0696976   0.0000000), wk =   0.0987654
        k(   13) = (   0.2222222   0.1393952   0.0000000), wk =   0.0987654
        k(   14) = (   0.2222222   0.2090927   0.0000000), wk =   0.0987654
        k(   15) = (   0.2222222   0.2787903   0.0000000), wk =   0.0987654
        k(   16) = (   0.3333333   0.0000000   0.0000000), wk =   0.0493827
        k(   17) = (   0.3333333   0.0696976   0.0000000), wk =   0.0987654
        k(   18) = (   0.3333333   0.1393952   0.0000000), wk =   0.0987654
        k(   19) = (   0.3333333   0.2090927   0.0000000), wk =   0.0987654
        k(   20) = (   0.3333333   0.2787903   0.0000000), wk =   0.0987654
        k(   21) = (   0.4444444   0.0000000   0.0000000), wk =   0.0493827
        k(   22) = (   0.4444444   0.0696976   0.0000000), wk =   0.0987654
        k(   23) = (   0.4444444   0.1393952   0.0000000), wk =   0.0987654
        k(   24) = (   0.4444444   0.2090927   0.0000000), wk =   0.0987654
        k(   25) = (   0.4444444   0.2787903   0.0000000), wk =   0.0987654

     Dense  grid:  1638141 G-vectors     FFT dimensions: (  72, 120, 400)

     Estimated max dynamical RAM per process >      64.01 MB

     Estimated total dynamical RAM >       4.69 GB

     Initial potential from superposition of free atoms

     starting charge      43.9998, renormalised to      44.0000

     negative rho (up, down):  2.124E-03 0.000E+00
     Starting wfcs are   32 randomized atomic wfcs

     total cpu time spent up to now is       61.0 secs

     Self-consistent Calculation

     iteration #  1     ecut=   500.00 Ry     beta= 0.70
     Davidson diagonalization with overlap
     ethr =  1.00E-02,  avg # of iterations =  3.0

     Threshold (ethr) on eigenvalues was too large:
     Diagonalizing with lowered threshold

     Davidson diagonalization with overlap
     ethr =  9.83E-04,  avg # of iterations =  1.0

     negative rho (up, down):  5.877E-04 0.000E+00

     total cpu time spent up to now is      466.8 secs

     total energy              =    -240.14279236 Ry
     estimated scf accuracy    <       0.42105490 Ry

     iteration #  2     ecut=   500.00 Ry     beta= 0.70
     Davidson diagonalization with overlap
     ethr =  9.57E-04,  avg # of iterations =  3.0

     negative rho (up, down):  3.412E-04 0.000E+00

     total cpu time spent up to now is      728.0 secs

     total energy              =    -240.16127453 Ry
     estimated scf accuracy    <       0.30380749 Ry

     iteration #  3     ecut=   500.00 Ry     beta= 0.70
     Davidson diagonalization with overlap
     ethr =  6.90E-04,  avg # of iterations =  2.5

     negative rho (up, down):  6.991E-05 0.000E+00

     total cpu time spent up to now is      953.2 secs

     total energy              =    -240.24327152 Ry
     estimated scf accuracy    <       0.02882692 Ry

     iteration #  4     ecut=   500.00 Ry     beta= 0.70
     Davidson diagonalization with overlap
     ethr =  6.55E-05,  avg # of iterations =  3.0

     negative rho (up, down):  1.316E-05 0.000E+00

     total cpu time spent up to now is     1192.6 secs

     total energy              =    -240.24707114 Ry
     estimated scf accuracy    <       0.00086411 Ry

     iteration #  5     ecut=   500.00 Ry     beta= 0.70
     Davidson diagonalization with overlap
     ethr =  1.96E-06,  avg # of iterations =  6.3

     negative rho (up, down):  5.257E-06 0.000E+00

     total cpu time spent up to now is     1626.9 secs

     total energy              =    -240.24735491 Ry
     estimated scf accuracy    <       0.00003847 Ry

     iteration #  6     ecut=   500.00 Ry     beta= 0.70
     Davidson diagonalization with overlap
     ethr =  8.74E-08,  avg # of iterations =  2.2

     negative rho (up, down):  5.168E-06 0.000E+00

     total cpu time spent up to now is     1827.3 secs

     total energy              =    -240.24735926 Ry
     estimated scf accuracy    <       0.00000292 Ry

     iteration #  7     ecut=   500.00 Ry     beta= 0.70
     Davidson diagonalization with overlap
     ethr =  6.63E-09,  avg # of iterations =  3.0

     negative rho (up, down):  5.179E-06 0.000E+00

     total cpu time spent up to now is     2081.7 secs

     total energy              =    -240.24736034 Ry
     estimated scf accuracy    <       0.00000052 Ry

     iteration #  8     ecut=   500.00 Ry     beta= 0.70
     Davidson diagonalization with overlap
     ethr =  1.17E-09,  avg # of iterations =  2.0

     negative rho (up, down):  5.183E-06 0.000E+00

     total cpu time spent up to now is     2280.4 secs

     End of self-consistent calculation

          k = 0.0000 0.0000 0.0000 (204769 PWs)   bands (ev):

   -28.1834 -27.9022 -26.6494 -26.5318 -18.8099 -15.5404 -13.5844 -11.1232
   -10.3489  -9.9808  -8.6996  -8.2805  -7.6842  -7.5566  -7.3230  -5.4480
    -5.3044  -5.2488  -4.5964  -4.2728  -4.0437  -2.7240   0.8194   3.2717
     3.3853   4.4162

          k = 0.0000 0.0697 0.0000 (204755 PWs)   bands (ev):

   -28.1535 -27.8805 -26.6851 -26.5656 -18.7492 -15.7623 -13.3994 -11.0868
   -10.2359 -10.0143  -8.6505  -8.2937  -7.7774  -7.4624  -7.3376  -5.4949
    -5.3765  -5.3392  -4.6556  -4.2414  -4.0043  -2.7762   0.9616   3.2973
     3.3798   4.6002

          k = 0.0000 0.1394 0.0000 (204724 PWs)   bands (ev):

   -28.0686 -27.8231 -26.7795 -26.6586 -18.5686 -16.2589 -12.9913 -11.0547
   -10.0359  -9.9385  -8.5080  -8.3458  -8.0327  -7.3955  -7.2106  -5.6581
    -5.6039  -5.4307  -4.7835  -4.2399  -3.8948  -2.9160   1.3473   3.3473
     3.3734   5.1157

          k = 0.0000 0.2091 0.0000 (204812 PWs)   bands (ev):

   -27.9447 -27.7579 -26.8919 -26.7860 -18.2735 -16.8308 -12.5131 -11.2094
    -9.8637  -9.5572  -8.4677  -8.4105  -8.2877  -7.5280  -6.8618  -5.9606
    -5.6995  -5.5491  -4.8691  -4.3656  -3.7334  -3.1088   1.8840   3.2348
     3.4990   4.3674

          k = 0.0000 0.2788 0.0000 (204762 PWs)   bands (ev):

   -27.8161 -27.7412 -26.9515 -26.9046 -17.8735 -17.3841 -12.0238 -11.5668
    -9.5039  -9.2692  -8.7696  -8.6742  -8.0188  -7.7471  -6.5171  -6.2335
    -5.7195  -5.6585  -4.8088  -4.5978  -3.5376  -3.3236   2.4628   2.9511
     3.6830   3.9645

          k = 0.1111 0.0000 0.0000 (204795 PWs)   bands (ev):

   -28.0993 -27.8281 -26.6475 -26.5320 -18.6562 -15.3910 -13.5225 -10.9999
   -10.2738 -10.0027  -9.3981  -8.3832  -7.7871  -7.6322  -7.4610  -5.7736
    -5.5923  -5.3186  -4.6936  -4.3840  -4.1912  -3.2727   1.0599   4.0616
     4.1785   4.3917

          k = 0.1111 0.0697 0.0000 (204808 PWs)   bands (ev):

   -28.0707 -27.8074 -26.6807 -26.5636 -18.5960 -15.6177 -13.3353 -10.9755
   -10.1820 -10.0374  -9.3379  -8.4122  -7.8019  -7.7278  -7.3694  -5.8378
    -5.6205  -5.3259  -4.7100  -4.3603  -4.2081  -3.3346   1.1840   4.1709
     4.2293   4.4088

          k = 0.1111 0.1394 0.0000 (204806 PWs)   bands (ev):

   -27.9892 -27.7527 -26.7686 -26.6507 -18.4171 -16.1189 -12.9310 -10.9775
   -10.0644  -9.9566  -9.1585  -8.5072  -7.9702  -7.8473  -7.1310  -5.9310
    -5.6811  -5.4356  -4.7753  -4.2770  -4.2685  -3.4752   1.5308   4.1081
     4.4563   4.6232

          k = 0.1111 0.2091 0.0000 (204782 PWs)   bands (ev):

   -27.8706 -27.6907 -26.8733 -26.7705 -18.1246 -16.6907 -12.4648 -11.1666
    -9.9235  -9.7037  -8.9173  -8.6697  -8.2571  -7.9319  -6.7987  -5.9729
    -5.7351  -5.6712  -4.8508  -4.4409  -4.1165  -3.6221   2.0404   3.8333
     4.5213   4.7147

          k = 0.1111 0.2788 0.0000 (204730 PWs)   bands (ev):

   -27.7475 -27.6754 -26.9281 -26.8827 -17.7278 -17.2417 -11.9882 -11.5359
    -9.6575  -9.5394  -8.8749  -8.8462  -8.2817  -8.0815  -6.4431  -6.1185
    -5.8115  -5.7771  -4.8343  -4.6684  -3.9399  -3.7706   2.6474   3.2843
     4.5855   4.6400

          k = 0.2222 0.0000 0.0000 (204743 PWs)   bands (ev):

   -27.8654 -27.6224 -26.6594 -26.5476 -18.1986 -14.9501 -13.4536 -10.7348
   -10.6580 -10.1878 -10.0749  -8.7789  -8.7617  -7.7478  -7.2011  -6.2214
    -6.2160  -5.6455  -5.2523  -4.6727  -4.2690  -4.2415   1.6434   3.8185
     5.5377   6.0045

          k = 0.2222 0.0697 0.0000 (204700 PWs)   bands (ev):

   -27.8405 -27.6048 -26.6855 -26.5730 -18.1401 -15.1934 -13.2674 -10.7189
   -10.6832 -10.2426  -9.9397  -8.9563  -8.5981  -7.8533  -7.1481  -6.2334
    -6.2028  -5.5604  -5.1965  -4.6692  -4.4080  -4.2379   1.7331   3.9778
     5.5090   6.0322

          k = 0.2222 0.1394 0.0000 (204726 PWs)   bands (ev):

   -27.7700 -27.5583 -26.7547 -26.6434 -17.9664 -15.7069 -12.8970 -10.8389
   -10.6535 -10.3132  -9.6129  -9.1220  -8.4600  -8.1050  -6.9931  -6.2129
    -6.1695  -5.4580  -5.0759  -4.6570  -4.6524  -4.3040   1.9994   4.3737
     5.3212   5.9268

          k = 0.2222 0.2091 0.0000 (204756 PWs)   bands (ev):

   -27.6675 -27.5067 -26.8366 -26.7413 -17.6819 -16.2771 -12.4892 -11.1847
   -10.5385 -10.3096  -9.2782  -9.2297  -8.3732  -8.3553  -6.7451  -6.1438
    -6.1149  -5.5920  -5.0056  -4.8669  -4.5824  -4.3605   2.4319   4.3748
     5.3011   5.9331

          k = 0.2222 0.2788 0.0000 (204729 PWs)   bands (ev):

   -27.5608 -27.4965 -26.8765 -26.8350 -17.2952 -16.8196 -12.0618 -11.6176
   -10.4097 -10.3223  -9.2352  -9.1718  -8.4199  -8.3642  -6.4177  -6.1307
    -6.0407  -5.9103  -5.0140  -4.9863  -4.4676  -4.3918   3.0109   3.6996
     5.7558   6.0249

          k = 0.3333 0.0000 0.0000 (204640 PWs)   bands (ev):

   -27.5349 -27.3323 -26.7300 -26.6165 -17.4471 -14.2397 -13.9476 -11.4993
   -10.9807 -10.2689  -9.8298  -9.3684  -9.3493  -8.0925  -7.0380  -6.5413
    -6.3829  -6.2863  -5.8600  -4.9902  -4.8382  -4.5842   2.3899   4.0391
     5.5441   6.9371

          k = 0.3333 0.0697 0.0000 (204650 PWs)   bands (ev):

   -27.5167 -27.3201 -26.7453 -26.6325 -17.3919 -14.5520 -13.7586 -11.3971
   -11.1610 -10.2994  -9.7619  -9.5418  -9.0660  -8.1951  -6.9617  -6.5905
    -6.3904  -6.1508  -5.7384  -5.1422  -4.8081  -4.5391   2.4518   4.1383
     5.4962   6.9210

          k = 0.3333 0.1394 0.0000 (204702 PWs)   bands (ev):

   -27.4653 -27.2889 -26.7854 -26.6775 -17.2276 -15.0673 -13.5220 -11.5745
   -11.1760 -10.3954  -9.6163  -9.6154  -8.7566  -8.3652  -6.8371  -6.6006
    -6.3599  -5.8796  -5.5118  -5.4172  -4.7340  -4.5368   2.6464   4.3934
     5.3284   6.2915

          k = 0.3333 0.2091 0.0000 (204717 PWs)   bands (ev):

   -27.3907 -27.2571 -26.8306 -26.7418 -16.9581 -15.6170 -13.2552 -12.0569
   -10.9530 -10.5121  -9.6464  -9.5478  -8.5116  -8.4124  -6.7655  -6.4288
    -6.3773  -5.6600  -5.5962  -5.3482  -4.6559  -4.5998   2.9923   4.5317
     5.1441   5.8792

          k = 0.3333 0.2788 0.0000 (204721 PWs)   bands (ev):

   -27.3116 -27.2586 -26.8446 -26.8073 -16.5905 -16.1367 -12.9244 -12.5205
   -10.7707 -10.6302  -9.6439  -9.5947  -8.3760  -8.3628  -6.6616  -6.5075
    -6.1472  -5.8639  -5.4136  -5.3201  -4.6263  -4.6188   3.4918   4.0858
     5.3204   5.5704

          k = 0.4444 0.0000 0.0000 (204686 PWs)   bands (ev):

   -27.1873 -27.0266 -26.9034 -26.7746 -16.4206 -15.1724 -13.2955 -12.1687
   -11.2402 -10.6113  -9.6359  -9.5141  -9.2042  -8.6156  -7.1615  -6.8997
    -6.3601  -6.2214  -6.1202  -5.5730  -4.9440  -4.8758   3.2727   4.3491
     4.7533   5.8825

          k = 0.4444 0.0697 0.0000 (204701 PWs)   bands (ev):

   -27.1790 -27.0236 -26.9051 -26.7797 -16.3710 -15.1395 -13.4909 -12.3773
   -11.1123 -10.5329  -9.6752  -9.6557  -9.0105  -8.6232  -7.0391  -6.7813
    -6.4609  -6.4013  -5.8964  -5.6284  -4.8866  -4.7998   3.3168   4.3715
     4.7515   5.7336

          k = 0.4444 0.1394 0.0000 (204686 PWs)   bands (ev):

   -27.1555 -27.0190 -26.9066 -26.7947 -16.2233 -15.0596 -13.9007 -12.8351
   -10.8816 -10.4466  -9.8642  -9.7407  -8.7137  -8.5586  -6.7860  -6.6670
    -6.5681  -6.4481  -5.6797  -5.6623  -4.7655  -4.6987   3.4581   4.4244
     4.7796   5.4571

          k = 0.4444 0.2091 0.0000 (204707 PWs)   bands (ev):

   -27.1214 -27.0248 -26.8985 -26.8180 -15.9825 -15.0472 -14.2131 -13.3418
   -10.7075 -10.4676  -9.9582  -9.8665  -8.4594  -8.4101  -6.8921  -6.7453
    -6.3590  -6.0783  -5.6420  -5.5430  -4.6784  -4.6757   3.7034   4.3997
     4.9436   5.2474

          k = 0.4444 0.2788 0.0000 (204751 PWs)   bands (ev):

   -27.0829 -27.0479 -26.8764 -26.8470 -15.6614 -15.2999 -14.1387 -13.7994
   -10.6067 -10.5365  -9.9819  -9.9554  -8.3136  -8.3019  -6.9490  -6.8944
    -5.9927  -5.7774  -5.6818  -5.5432  -4.6858  -4.6687   4.0052   4.2551
     5.1338   5.1741

     the Fermi energy is    -0.4825 ev

!    total energy              =    -240.24736046 Ry
     estimated scf accuracy    <          4.7E-09 Ry
     smearing contrib. (-TS)   =      -0.00000000 Ry
     internal energy E=F+TS    =    -240.24736046 Ry

     The total energy is F=E-TS. E is the sum of the following terms:
     one-electron contribution =   -1256.48183067 Ry
     hartree contribution      =     642.01103378 Ry
     xc contribution           =     -51.69323628 Ry
     ewald contribution        =     425.91667271 Ry

     convergence has been achieved in   8 iterations

     negative rho (up, down):  5.183E-06 0.000E+00

     Forces acting on atoms (cartesian axes, Ry/au):

     atom    1 type  1   force =     0.00000000   -0.00004145   -0.00000597
     atom    2 type  1   force =     0.00000000   -0.00004145    0.00000597
     atom    3 type  1   force =     0.00000000    0.00004145   -0.00000597
     atom    4 type  1   force =     0.00000000    0.00004145    0.00000597
     atom    5 type  2   force =     0.00000000   -0.00000686   -0.00006255
     atom    6 type  2   force =     0.00000000   -0.00000686    0.00006255
     atom    7 type  2   force =     0.00000000    0.00000686   -0.00006255
     atom    8 type  2   force =     0.00000000    0.00000686    0.00006255

     Total force =     0.000151     Total SCF correction =     0.000323
     SCF correction compared to forces is large: reduce conv_thr to get better values


     Computing stress (Cartesian axis) and pressure


     negative rho (up, down):  5.183E-06 0.000E+00
          total   stress  (Ry/bohr**3)                   (kbar)     P=       -0.07
  -0.00000079   0.00000000   0.00000000           -0.12        0.00        0.00
   0.00000000  -0.00000042   0.00000000            0.00       -0.06        0.00
   0.00000000   0.00000000  -0.00000014            0.00        0.00       -0.02


     Writing all to output data dir ../tmp/fgz.save/

     init_run     :     34.20s CPU     60.40s WALL (       1 calls)
     electrons    :   1215.97s CPU   2219.78s WALL (       1 calls)
     forces       :     35.53s CPU     64.77s WALL (       1 calls)
     stress       :     16.04s CPU     32.68s WALL (       1 calls)

     Called by init_run:
     wfcinit      :     32.81s CPU     58.83s WALL (       1 calls)
     potinit      :      0.15s CPU      0.15s WALL (       1 calls)
     hinit0       :      0.58s CPU      0.58s WALL (       1 calls)

     Called by electrons:
     c_bands      :   1167.11s CPU   2107.46s WALL (       9 calls)
     sum_band     :     46.93s CPU    108.41s WALL (       9 calls)
     v_of_rho     :      0.24s CPU      0.27s WALL (       9 calls)
     newd         :      1.47s CPU      3.20s WALL (       9 calls)
     mix_rho      :      0.15s CPU      0.16s WALL (       9 calls)

     Called by c_bands:
     init_us_2    :      0.40s CPU      0.79s WALL (     525 calls)
     init_us_2:cp :      0.40s CPU      0.79s WALL (     525 calls)
     cegterg      :   1105.46s CPU   1990.19s WALL (     225 calls)

     Called by *egterg:
     cdiaghg      :    112.37s CPU     87.13s WALL (     846 calls)
     h_psi        :    274.66s CPU    671.96s WALL (     896 calls)
     s_psi        :     10.91s CPU     31.68s WALL (     896 calls)
     g_psi        :      0.16s CPU      0.19s WALL (     646 calls)

     Called by h_psi:
     h_psi:calbec :    165.29s CPU    410.28s WALL (     896 calls)
     vloc_psi     :     53.78s CPU     69.18s WALL (     896 calls)
     add_vuspsi   :     55.46s CPU    191.87s WALL (     896 calls)

     General routines
     calbec       :    250.75s CPU    586.36s WALL (    1246 calls)
     fft          :      0.72s CPU      0.79s WALL (     125 calls)
     ffts         :      0.04s CPU      0.05s WALL (       9 calls)
     fftw         :     56.12s CPU     70.61s WALL (   37770 calls)

     Parallel routines

     PWSCF        :  21m43.21s CPU  39m48.36s WALL


   This run was terminated on:  18: 8:41  19Jan2024            

=------------------------------------------------------------------------------=
   JOB DONE.
=------------------------------------------------------------------------------=
