
     Program PWSCF v.7.1 starts on 19Jan2024 at 18:54:28 

     This program is part of the open-source Quantum ESPRESSO suite
     for quantum simulation of materials; please cite
         "P. Giannozzi et al., J. Phys.:Condens. Matter 21 395502 (2009);
         "P. Giannozzi et al., J. Phys.:Condens. Matter 29 465901 (2017);
         "P. Giannozzi et al., J. Chem. Phys. 152 154105 (2020);
          URL http://www.quantum-espresso.org", 
     in publications or presentations arising from this work. More details at
     http://www.quantum-espresso.org/quote

     Parallel version (MPI), running on    75 processors

     MPI processes distributed on     1 nodes
     348394 MiB available memory on the printing compute node when the environment starts

     Reading input from ecut.700.in

     Current dimensions of program PWSCF are:
     Max number of different atomic species (ntypx) = 10
     Max number of k-points (npk) =  40000
     Max angular momentum in pseudopotentials (lmaxx) =  4
     Message from routine setup:
     using ibrav=0 with symmetry is DISCOURAGED, use correct ibrav instead

     R & G space division:  proc/nbgrp/npool/nimage =      75
     Subspace diagonalization in iterative solution of the eigenvalue problem:
     a serial algorithm will be used


     Parallelization info
     --------------------
     sticks:   dense  smooth     PW     G-vecs:    dense   smooth      PW
     Min         116     116     30                36156    36156    4854
     Max         117     117     31                36193    36193    4883
     Sum        8763    8763   2307              2713169  2713169  365347

     Using Slab Decomposition



     bravais-lattice index     =            0
     lattice parameter (alat)  =       4.9702  a.u.
     unit-cell volume          =    1084.4437 (a.u.)^3
     number of atoms/cell      =            8
     number of atomic types    =            2
     number of electrons       =        44.00
     number of Kohn-Sham states=           26
     kinetic-energy cutoff     =     700.0000  Ry
     charge density cutoff     =    2800.0000  Ry
     scf convergence threshold =      1.0E-08
     mixing beta               =       0.7000
     number of iterations used =            8  plain     mixing
     Exchange-correlation=  SLA  PW   PBX  PBC
                           (   1   4   3   4   0   0   0)

     celldm(1)=   4.970237  celldm(2)=   0.000000  celldm(3)=   0.000000
     celldm(4)=   0.000000  celldm(5)=   0.000000  celldm(6)=   0.000000

     crystal axes: (cart. coord. in units of alat)
               a(1) = (   1.000000   0.000000   0.000000 )  
               a(2) = (   0.000000   1.594189   0.000000 )  
               a(3) = (   0.000000   0.000000   5.540333 )  

     reciprocal axes: (cart. coord. in units 2 pi/alat)
               b(1) = (  1.000000  0.000000  0.000000 )  
               b(2) = (  0.000000  0.627278  0.000000 )  
               b(3) = (  0.000000  0.000000  0.180495 )  


     PseudoPot. # 1 for C  read from file:
     ../pseudo/c_pbe_v1.2.uspp.F.UPF
     MD5 check sum: d1aef80898a10debaa0f26306b886e00
     Pseudo is Ultrasoft + core correction, Zval =  4.0
     Generated by new atomic code, or converted to UPF format
     Using radial grid of  721 points,  4 beta functions with: 
                l(1) =   0
                l(2) =   0
                l(3) =   1
                l(4) =   1
     Q(r) pseudized with  8 coefficients,  rinner =    1.100   1.100   1.100


     PseudoPot. # 2 for F  read from file:
     ../pseudo/f_pbe_v1.4.uspp.F.UPF
     MD5 check sum: 4c38b6a325caf53ec0e86aed9459de46
     Pseudo is Ultrasoft, Zval =  7.0
     Generated by new atomic code, or converted to UPF format
     Using radial grid of  799 points,  4 beta functions with: 
                l(1) =   0
                l(2) =   0
                l(3) =   1
                l(4) =   1
     Q(r) pseudized with  8 coefficients,  rinner =    0.950   0.950   0.950


     atomic species   valence    mass     pseudopotential
        C              4.00    12.01070     C ( 1.00)
        F              7.00    18.99840     F ( 1.00)

      8 Sym. Ops., with inversion, found ( 4 have fractional translation)



   Cartesian axes

     site n.     atom                  positions (alat units)
         1           C   tau(   1) = (   0.5000000   0.2256478   0.1937169  )
         2           C   tau(   2) = (   0.0000000   1.0227422  -0.1937169  )
         3           C   tau(   3) = (   0.0000000   0.5714467   0.1937169  )
         4           C   tau(   4) = (   0.5000000   1.3685411  -0.1937169  )
         5           F   tau(   5) = (   0.5000000  -0.0095812  -0.6719762  )
         6           F   tau(   6) = (   0.0000000   0.7875132   0.6719762  )
         7           F   tau(   7) = (   0.0000000   0.8066757  -0.6719762  )
         8           F   tau(   8) = (   0.5000000   0.0095812   0.6719762  )

     number of k points=    25  Marzari-Vanderbilt smearing, width (Ry)=  0.0200
                       cart. coord. in units 2pi/alat
        k(    1) = (   0.0000000   0.0000000   0.0000000), wk =   0.0246914
        k(    2) = (   0.0000000   0.0696976   0.0000000), wk =   0.0493827
        k(    3) = (   0.0000000   0.1393952   0.0000000), wk =   0.0493827
        k(    4) = (   0.0000000   0.2090927   0.0000000), wk =   0.0493827
        k(    5) = (   0.0000000   0.2787903   0.0000000), wk =   0.0493827
        k(    6) = (   0.1111111   0.0000000   0.0000000), wk =   0.0493827
        k(    7) = (   0.1111111   0.0696976   0.0000000), wk =   0.0987654
        k(    8) = (   0.1111111   0.1393952   0.0000000), wk =   0.0987654
        k(    9) = (   0.1111111   0.2090927   0.0000000), wk =   0.0987654
        k(   10) = (   0.1111111   0.2787903   0.0000000), wk =   0.0987654
        k(   11) = (   0.2222222   0.0000000   0.0000000), wk =   0.0493827
        k(   12) = (   0.2222222   0.0696976   0.0000000), wk =   0.0987654
        k(   13) = (   0.2222222   0.1393952   0.0000000), wk =   0.0987654
        k(   14) = (   0.2222222   0.2090927   0.0000000), wk =   0.0987654
        k(   15) = (   0.2222222   0.2787903   0.0000000), wk =   0.0987654
        k(   16) = (   0.3333333   0.0000000   0.0000000), wk =   0.0493827
        k(   17) = (   0.3333333   0.0696976   0.0000000), wk =   0.0987654
        k(   18) = (   0.3333333   0.1393952   0.0000000), wk =   0.0987654
        k(   19) = (   0.3333333   0.2090927   0.0000000), wk =   0.0987654
        k(   20) = (   0.3333333   0.2787903   0.0000000), wk =   0.0987654
        k(   21) = (   0.4444444   0.0000000   0.0000000), wk =   0.0493827
        k(   22) = (   0.4444444   0.0696976   0.0000000), wk =   0.0987654
        k(   23) = (   0.4444444   0.1393952   0.0000000), wk =   0.0987654
        k(   24) = (   0.4444444   0.2090927   0.0000000), wk =   0.0987654
        k(   25) = (   0.4444444   0.2787903   0.0000000), wk =   0.0987654

     Dense  grid:  2713169 G-vectors     FFT dimensions: (  90, 144, 480)

     Estimated max dynamical RAM per process >     105.38 MB

     Estimated total dynamical RAM >       7.72 GB

     Initial potential from superposition of free atoms

     starting charge      43.9998, renormalised to      44.0000

     negative rho (up, down):  6.060E-03 0.000E+00
     Starting wfcs are   32 randomized atomic wfcs

     total cpu time spent up to now is       67.5 secs

     Self-consistent Calculation

     iteration #  1     ecut=   700.00 Ry     beta= 0.70
     Davidson diagonalization with overlap
     ethr =  1.00E-02,  avg # of iterations =  4.1

     negative rho (up, down):  1.631E-03 0.000E+00

     total cpu time spent up to now is      390.8 secs

     total energy              =    -240.10972101 Ry
     estimated scf accuracy    <       0.44444245 Ry

     iteration #  2     ecut=   700.00 Ry     beta= 0.70
     Davidson diagonalization with overlap
     ethr =  1.01E-03,  avg # of iterations =  3.6

     negative rho (up, down):  1.010E-03 0.000E+00

     total cpu time spent up to now is      687.3 secs

     total energy              =    -240.13097880 Ry
     estimated scf accuracy    <       0.43724999 Ry

     iteration #  3     ecut=   700.00 Ry     beta= 0.70
     Davidson diagonalization with overlap
     ethr =  9.94E-04,  avg # of iterations =  2.1

     negative rho (up, down):  1.856E-04 0.000E+00

     total cpu time spent up to now is      897.8 secs

     total energy              =    -240.24478963 Ry
     estimated scf accuracy    <       0.02092122 Ry

     iteration #  4     ecut=   700.00 Ry     beta= 0.70
     Davidson diagonalization with overlap
     ethr =  4.75E-05,  avg # of iterations =  5.5

     negative rho (up, down):  3.286E-05 0.000E+00

     total cpu time spent up to now is     1273.0 secs

     total energy              =    -240.24707284 Ry
     estimated scf accuracy    <       0.00169016 Ry

     iteration #  5     ecut=   700.00 Ry     beta= 0.70
     Davidson diagonalization with overlap
     ethr =  3.84E-06,  avg # of iterations =  4.3

     negative rho (up, down):  1.291E-06 0.000E+00

     total cpu time spent up to now is     1598.2 secs

     total energy              =    -240.24742327 Ry
     estimated scf accuracy    <       0.00002315 Ry

     iteration #  6     ecut=   700.00 Ry     beta= 0.70
     Davidson diagonalization with overlap
     ethr =  5.26E-08,  avg # of iterations =  4.4

     negative rho (up, down):  1.356E-06 0.000E+00

     total cpu time spent up to now is     1932.3 secs

     total energy              =    -240.24743458 Ry
     estimated scf accuracy    <       0.00002146 Ry

     iteration #  7     ecut=   700.00 Ry     beta= 0.70
     Davidson diagonalization with overlap
     ethr =  4.88E-08,  avg # of iterations =  1.9

     negative rho (up, down):  1.346E-06 0.000E+00

     total cpu time spent up to now is     2124.2 secs

     total energy              =    -240.24743561 Ry
     estimated scf accuracy    <       0.00000193 Ry

     iteration #  8     ecut=   700.00 Ry     beta= 0.70
     Davidson diagonalization with overlap
     ethr =  4.38E-09,  avg # of iterations =  3.1

     negative rho (up, down):  1.353E-06 0.000E+00

     total cpu time spent up to now is     2391.2 secs

     total energy              =    -240.24743641 Ry
     estimated scf accuracy    <       0.00000062 Ry

     iteration #  9     ecut=   700.00 Ry     beta= 0.70
     Davidson diagonalization with overlap
     ethr =  1.40E-09,  avg # of iterations =  2.0

     negative rho (up, down):  1.339E-06 0.000E+00

     total cpu time spent up to now is     2588.8 secs

     total energy              =    -240.24743649 Ry
     estimated scf accuracy    <       0.00000002 Ry

     iteration # 10     ecut=   700.00 Ry     beta= 0.70
     Davidson diagonalization with overlap
     ethr =  4.28E-11,  avg # of iterations =  3.4

     negative rho (up, down):  1.335E-06 0.000E+00

     total cpu time spent up to now is     2884.4 secs

     End of self-consistent calculation

          k = 0.0000 0.0000 0.0000 (339089 PWs)   bands (ev):

   -28.1834 -27.9022 -26.6494 -26.5318 -18.8098 -15.5402 -13.5843 -11.1232
   -10.3489  -9.9809  -8.6996  -8.2805  -7.6842  -7.5566  -7.3229  -5.4480
    -5.3045  -5.2488  -4.5965  -4.2727  -4.0437  -2.7240   0.8195   3.2718
     3.3854   4.4163

          k = 0.0000 0.0697 0.0000 (339085 PWs)   bands (ev):

   -28.1535 -27.8805 -26.6851 -26.5656 -18.7490 -15.7621 -13.3993 -11.0867
   -10.2359 -10.0143  -8.6505  -8.2937  -7.7774  -7.4624  -7.3376  -5.4949
    -5.3765  -5.3392  -4.6556  -4.2413  -4.0043  -2.7761   0.9617   3.2975
     3.3798   4.6003

          k = 0.0000 0.1394 0.0000 (339099 PWs)   bands (ev):

   -28.0686 -27.8231 -26.7795 -26.6586 -18.5684 -16.2588 -12.9912 -11.0546
   -10.0359  -9.9385  -8.5080  -8.3458  -8.0327  -7.3955  -7.2106  -5.6581
    -5.6039  -5.4307  -4.7835  -4.2399  -3.8948  -2.9159   1.3474   3.3474
     3.3735   4.7148

          k = 0.0000 0.2091 0.0000 (338975 PWs)   bands (ev):

   -27.9447 -27.7579 -26.8919 -26.7860 -18.2734 -16.8306 -12.5130 -11.2094
    -9.8637  -9.5572  -8.4677  -8.4105  -8.2877  -7.5279  -6.8618  -5.9606
    -5.6995  -5.5492  -4.8691  -4.3656  -3.7334  -3.1088   1.8841   3.2349
     3.4991   4.3676

          k = 0.0000 0.2788 0.0000 (338928 PWs)   bands (ev):

   -27.8161 -27.7412 -26.9515 -26.9046 -17.8734 -17.3840 -12.0237 -11.5667
    -9.5039  -9.2692  -8.7696  -8.6741  -8.0187  -7.7470  -6.5172  -6.2335
    -5.7195  -5.6585  -4.8088  -4.5978  -3.5376  -3.3236   2.4628   2.9511
     3.6831   3.9646

          k = 0.1111 0.0000 0.0000 (339168 PWs)   bands (ev):

   -28.0993 -27.8281 -26.6474 -26.5320 -18.6561 -15.3908 -13.5224 -10.9999
   -10.2737 -10.0027  -9.3980  -8.3832  -7.7870  -7.6322  -7.4610  -5.7737
    -5.5924  -5.3186  -4.6936  -4.3840  -4.1912  -3.2726   1.0600   4.0618
     4.1786   4.3918

          k = 0.1111 0.0697 0.0000 (339216 PWs)   bands (ev):

   -28.0706 -27.8074 -26.6807 -26.5636 -18.5959 -15.6176 -13.3352 -10.9754
   -10.1819 -10.0374  -9.3378  -8.4122  -7.8019  -7.7278  -7.3694  -5.8378
    -5.6205  -5.3260  -4.7101  -4.3603  -4.2081  -3.3345   1.1841   4.1709
     4.2296   4.4090

          k = 0.1111 0.1394 0.0000 (339048 PWs)   bands (ev):

   -27.9892 -27.7526 -26.7686 -26.6507 -18.4169 -16.1187 -12.9309 -10.9774
   -10.0644  -9.9566  -9.1584  -8.5071  -7.9702  -7.8473  -7.1310  -5.9310
    -5.6811  -5.4356  -4.7753  -4.2770  -4.2685  -3.4751   1.5308   4.1081
     4.4564   4.6236

          k = 0.1111 0.2091 0.0000 (339008 PWs)   bands (ev):

   -27.8706 -27.6906 -26.8733 -26.7705 -18.1244 -16.6906 -12.4647 -11.1666
    -9.9235  -9.7036  -8.9172  -8.6697  -8.2571  -7.9318  -6.7987  -5.9730
    -5.7351  -5.6712  -4.8508  -4.4408  -4.1165  -3.6220   2.0404   3.8334
     4.5214   4.7149

          k = 0.1111 0.2788 0.0000 (338940 PWs)   bands (ev):

   -27.7474 -27.6753 -26.9281 -26.8827 -17.7276 -17.2415 -11.9881 -11.5358
    -9.6575  -9.5394  -8.8749  -8.8462  -8.2816  -8.0814  -6.4431  -6.1186
    -5.8116  -5.7771  -4.8344  -4.6684  -3.9399  -3.7706   2.6474   3.2843
     4.5856   4.6401

          k = 0.2222 0.0000 0.0000 (339180 PWs)   bands (ev):

   -27.8653 -27.6224 -26.6594 -26.5476 -18.1984 -14.9499 -13.4535 -10.7346
   -10.6580 -10.1878 -10.0749  -8.7789  -8.7617  -7.7478  -7.2011  -6.2214
    -6.2161  -5.6456  -5.2523  -4.6727  -4.2690  -4.2415   1.6434   3.8187
     5.5377   6.0142

          k = 0.2222 0.0697 0.0000 (339155 PWs)   bands (ev):

   -27.8405 -27.6048 -26.6855 -26.5730 -18.1400 -15.1933 -13.2673 -10.7188
   -10.6831 -10.2426  -9.9397  -8.9562  -8.5980  -7.8533  -7.1481  -6.2334
    -6.2028  -5.5604  -5.1965  -4.6693  -4.4080  -4.2378   1.7332   3.9779
     5.5090   6.0395

          k = 0.2222 0.1394 0.0000 (339215 PWs)   bands (ev):

   -27.7700 -27.5583 -26.7547 -26.6434 -17.9662 -15.7067 -12.8969 -10.8389
   -10.6534 -10.3131  -9.6129  -9.1220  -8.4600  -8.1050  -6.9931  -6.2130
    -6.1695  -5.4580  -5.0759  -4.6570  -4.6524  -4.3040   1.9995   4.3738
     5.3212   5.9281

          k = 0.2222 0.2091 0.0000 (339161 PWs)   bands (ev):

   -27.6675 -27.5067 -26.8366 -26.7413 -17.6818 -16.2769 -12.4891 -11.1847
   -10.5384 -10.3096  -9.2782  -9.2297  -8.3732  -8.3553  -6.7451  -6.1438
    -6.1149  -5.5921  -5.0056  -4.8669  -4.5824  -4.3605   2.4319   4.3749
     5.3011   5.9334

          k = 0.2222 0.2788 0.0000 (339103 PWs)   bands (ev):

   -27.5608 -27.4965 -26.8765 -26.8350 -17.2951 -16.8195 -12.0617 -11.6175
   -10.4096 -10.3223  -9.2352  -9.1718  -8.4199  -8.3642  -6.4177  -6.1307
    -6.0407  -5.9103  -5.0140  -4.9863  -4.4676  -4.3917   3.0110   3.6997
     5.7559   6.0250

          k = 0.3333 0.0000 0.0000 (339220 PWs)   bands (ev):

   -27.5349 -27.3323 -26.7299 -26.6165 -17.4470 -14.2396 -13.9475 -11.4991
   -10.9806 -10.2688  -9.8298  -9.3684  -9.3493  -8.0925  -7.0380  -6.5413
    -6.3830  -6.2864  -5.8601  -4.9902  -4.8382  -4.5842   2.3900   4.0392
     5.5442   6.9372

          k = 0.3333 0.0697 0.0000 (339199 PWs)   bands (ev):

   -27.5167 -27.3201 -26.7452 -26.6325 -17.3918 -14.5518 -13.7585 -11.3970
   -11.1609 -10.2993  -9.7618  -9.5418  -9.0660  -8.1951  -6.9617  -6.5905
    -6.3904  -6.1508  -5.7384  -5.1422  -4.8081  -4.5391   2.4518   4.1384
     5.4963   6.9217

          k = 0.3333 0.1394 0.0000 (339211 PWs)   bands (ev):

   -27.4653 -27.2889 -26.7854 -26.6775 -17.2275 -15.0672 -13.5219 -11.5744
   -11.1759 -10.3953  -9.6163  -9.6154  -8.7566  -8.3652  -6.8371  -6.6006
    -6.3599  -5.8797  -5.5119  -5.4172  -4.7340  -4.5368   2.6465   4.3935
     5.3284   6.2916

          k = 0.3333 0.2091 0.0000 (339238 PWs)   bands (ev):

   -27.3907 -27.2571 -26.8306 -26.7418 -16.9580 -15.6169 -13.2551 -12.0568
   -10.9529 -10.5121  -9.6464  -9.5478  -8.5115  -8.4124  -6.7655  -6.4288
    -6.3773  -5.6600  -5.5963  -5.3482  -4.6559  -4.5998   2.9924   4.5318
     5.1442   5.8793

          k = 0.3333 0.2788 0.0000 (339255 PWs)   bands (ev):

   -27.3116 -27.2586 -26.8446 -26.8073 -16.5903 -16.1366 -12.9243 -12.5204
   -10.7706 -10.6302  -9.6439  -9.5946  -8.3760  -8.3628  -6.6616  -6.5075
    -6.1472  -5.8639  -5.4136  -5.3201  -4.6262  -4.6188   3.4918   4.0859
     5.3205   5.5705

          k = 0.4444 0.0000 0.0000 (339270 PWs)   bands (ev):

   -27.1873 -27.0266 -26.9034 -26.7746 -16.4205 -15.1723 -13.2953 -12.1686
   -11.2401 -10.6113  -9.6359  -9.5141  -9.2042  -8.6156  -7.1616  -6.8997
    -6.3601  -6.2214  -6.1202  -5.5730  -4.9440  -4.8758   3.2728   4.3492
     4.7535   5.8826

          k = 0.4444 0.0697 0.0000 (339264 PWs)   bands (ev):

   -27.1789 -27.0236 -26.9051 -26.7797 -16.3708 -15.1394 -13.4908 -12.3772
   -11.1122 -10.5328  -9.6752  -9.6557  -9.0105  -8.6232  -7.0391  -6.7813
    -6.4609  -6.4014  -5.8964  -5.6284  -4.8866  -4.7998   3.3169   4.3716
     4.7517   5.7337

          k = 0.4444 0.1394 0.0000 (339258 PWs)   bands (ev):

   -27.1555 -27.0190 -26.9066 -26.7947 -16.2232 -15.0594 -13.9006 -12.8350
   -10.8815 -10.4466  -9.8642  -9.7407  -8.7137  -8.5586  -6.7860  -6.6670
    -6.5681  -6.4481  -5.6797  -5.6623  -4.7655  -4.6987   3.4581   4.4244
     4.7797   5.4572

          k = 0.4444 0.2091 0.0000 (339258 PWs)   bands (ev):

   -27.1214 -27.0247 -26.8985 -26.8180 -15.9824 -15.0471 -14.2130 -13.3417
   -10.7075 -10.4675  -9.9582  -9.8665  -8.4594  -8.4101  -6.8921  -6.7453
    -6.3590  -6.0783  -5.6421  -5.5431  -4.6784  -4.6757   3.7034   4.3997
     4.9437   5.2475

          k = 0.4444 0.2788 0.0000 (339219 PWs)   bands (ev):

   -27.0829 -27.0478 -26.8764 -26.8470 -15.6612 -15.2998 -14.1386 -13.7993
   -10.6066 -10.5364  -9.9819  -9.9554  -8.3136  -8.3019  -6.9490  -6.8944
    -5.9927  -5.7775  -5.6818  -5.5432  -4.6858  -4.6687   4.0052   4.2551
     5.1339   5.1743

     the Fermi energy is    -0.4824 ev

!    total energy              =    -240.24743650 Ry
     estimated scf accuracy    <          2.8E-09 Ry
     smearing contrib. (-TS)   =      -0.00000000 Ry
     internal energy E=F+TS    =    -240.24743650 Ry

     The total energy is F=E-TS. E is the sum of the following terms:
     one-electron contribution =   -1256.48210165 Ry
     hartree contribution      =     642.01125401 Ry
     xc contribution           =     -51.69326156 Ry
     ewald contribution        =     425.91667271 Ry

     convergence has been achieved in  10 iterations

     negative rho (up, down):  1.335E-06 0.000E+00

     Forces acting on atoms (cartesian axes, Ry/au):

     atom    1 type  1   force =     0.00000000   -0.00004361   -0.00000607
     atom    2 type  1   force =     0.00000000   -0.00004361    0.00000607
     atom    3 type  1   force =     0.00000000    0.00004361   -0.00000607
     atom    4 type  1   force =     0.00000000    0.00004361    0.00000607
     atom    5 type  2   force =     0.00000000   -0.00003033   -0.00003094
     atom    6 type  2   force =     0.00000000   -0.00003033    0.00003094
     atom    7 type  2   force =     0.00000000    0.00003033   -0.00003094
     atom    8 type  2   force =     0.00000000    0.00003033    0.00003094

     Total force =     0.000124     Total SCF correction =     0.000263
     SCF correction compared to forces is large: reduce conv_thr to get better values


     Computing stress (Cartesian axis) and pressure


     negative rho (up, down):  1.335E-06 0.000E+00
          total   stress  (Ry/bohr**3)                   (kbar)     P=       -0.05
  -0.00000065   0.00000000   0.00000000           -0.10        0.00        0.00
   0.00000000  -0.00000033   0.00000000            0.00       -0.05        0.00
   0.00000000   0.00000000  -0.00000013            0.00        0.00       -0.02


     Writing all to output data dir ../tmp/fgz.save/

     init_run     :     36.85s CPU     67.00s WALL (       1 calls)
     electrons    :   1579.34s CPU   2817.43s WALL (       1 calls)
     forces       :     35.77s CPU     66.16s WALL (       1 calls)
     stress       :     19.95s CPU     42.37s WALL (       1 calls)

     Called by init_run:
     wfcinit      :     34.83s CPU     64.58s WALL (       1 calls)
     potinit      :      0.24s CPU      0.24s WALL (       1 calls)
     hinit0       :      0.77s CPU      0.78s WALL (       1 calls)

     Called by electrons:
     c_bands      :   1521.14s CPU   2685.91s WALL (      10 calls)
     sum_band     :     54.84s CPU    125.49s WALL (      10 calls)
     v_of_rho     :      0.52s CPU      0.57s WALL (      11 calls)
     newd         :      2.21s CPU      4.65s WALL (      11 calls)
     mix_rho      :      0.42s CPU      0.48s WALL (      10 calls)

     Called by c_bands:
     init_us_2    :      0.69s CPU      1.19s WALL (     575 calls)
     init_us_2:cp :      0.68s CPU      1.19s WALL (     575 calls)
     cegterg      :   1449.85s CPU   2555.13s WALL (     250 calls)

     Called by *egterg:
     cdiaghg      :    149.50s CPU    115.42s WALL (    1112 calls)
     h_psi        :    370.33s CPU    861.65s WALL (    1137 calls)
     s_psi        :     14.22s CPU     37.73s WALL (    1137 calls)
     g_psi        :      0.27s CPU      0.21s WALL (     862 calls)

     Called by h_psi:
     h_psi:calbec :    213.37s CPU    525.42s WALL (    1137 calls)
     vloc_psi     :     86.10s CPU     96.76s WALL (    1137 calls)
     add_vuspsi   :     70.59s CPU    238.66s WALL (    1137 calls)

     General routines
     calbec       :    303.73s CPU    719.51s WALL (    1512 calls)
     fft          :      1.08s CPU      1.16s WALL (     146 calls)
     ffts         :      0.02s CPU      0.03s WALL (      10 calls)
     fftw         :     90.86s CPU    101.41s WALL (   42948 calls)

     Parallel routines

     PWSCF        :  27m53.91s CPU  50m 6.80s WALL


   This run was terminated on:  19:44:35  19Jan2024            

=------------------------------------------------------------------------------=
   JOB DONE.
=------------------------------------------------------------------------------=
