
     Program PWSCF v.7.1 starts on 19Jan2024 at 19:44:39 

     This program is part of the open-source Quantum ESPRESSO suite
     for quantum simulation of materials; please cite
         "P. Giannozzi et al., J. Phys.:Condens. Matter 21 395502 (2009);
         "P. Giannozzi et al., J. Phys.:Condens. Matter 29 465901 (2017);
         "P. Giannozzi et al., J. Chem. Phys. 152 154105 (2020);
          URL http://www.quantum-espresso.org", 
     in publications or presentations arising from this work. More details at
     http://www.quantum-espresso.org/quote

     Parallel version (MPI), running on    75 processors

     MPI processes distributed on     1 nodes
     347647 MiB available memory on the printing compute node when the environment starts

     Reading input from ecut.800.in

     Current dimensions of program PWSCF are:
     Max number of different atomic species (ntypx) = 10
     Max number of k-points (npk) =  40000
     Max angular momentum in pseudopotentials (lmaxx) =  4
     Message from routine setup:
     using ibrav=0 with symmetry is DISCOURAGED, use correct ibrav instead

     R & G space division:  proc/nbgrp/npool/nimage =      75
     Subspace diagonalization in iterative solution of the eigenvalue problem:
     a serial algorithm will be used


     Parallelization info
     --------------------
     sticks:   dense  smooth     PW     G-vecs:    dense   smooth      PW
     Min         133     133     35                44183    44183    5907
     Max         134     134     35                44216    44216    5931
     Sum       10023   10023   2625              3315121  3315121  444129

     Using Slab Decomposition



     bravais-lattice index     =            0
     lattice parameter (alat)  =       4.9702  a.u.
     unit-cell volume          =    1084.4437 (a.u.)^3
     number of atoms/cell      =            8
     number of atomic types    =            2
     number of electrons       =        44.00
     number of Kohn-Sham states=           26
     kinetic-energy cutoff     =     800.0000  Ry
     charge density cutoff     =    3200.0000  Ry
     scf convergence threshold =      1.0E-08
     mixing beta               =       0.7000
     number of iterations used =            8  plain     mixing
     Exchange-correlation=  SLA  PW   PBX  PBC
                           (   1   4   3   4   0   0   0)

     celldm(1)=   4.970237  celldm(2)=   0.000000  celldm(3)=   0.000000
     celldm(4)=   0.000000  celldm(5)=   0.000000  celldm(6)=   0.000000

     crystal axes: (cart. coord. in units of alat)
               a(1) = (   1.000000   0.000000   0.000000 )  
               a(2) = (   0.000000   1.594189   0.000000 )  
               a(3) = (   0.000000   0.000000   5.540333 )  

     reciprocal axes: (cart. coord. in units 2 pi/alat)
               b(1) = (  1.000000  0.000000  0.000000 )  
               b(2) = (  0.000000  0.627278  0.000000 )  
               b(3) = (  0.000000  0.000000  0.180495 )  


     PseudoPot. # 1 for C  read from file:
     ../pseudo/c_pbe_v1.2.uspp.F.UPF
     MD5 check sum: d1aef80898a10debaa0f26306b886e00
     Pseudo is Ultrasoft + core correction, Zval =  4.0
     Generated by new atomic code, or converted to UPF format
     Using radial grid of  721 points,  4 beta functions with: 
                l(1) =   0
                l(2) =   0
                l(3) =   1
                l(4) =   1
     Q(r) pseudized with  8 coefficients,  rinner =    1.100   1.100   1.100


     PseudoPot. # 2 for F  read from file:
     ../pseudo/f_pbe_v1.4.uspp.F.UPF
     MD5 check sum: 4c38b6a325caf53ec0e86aed9459de46
     Pseudo is Ultrasoft, Zval =  7.0
     Generated by new atomic code, or converted to UPF format
     Using radial grid of  799 points,  4 beta functions with: 
                l(1) =   0
                l(2) =   0
                l(3) =   1
                l(4) =   1
     Q(r) pseudized with  8 coefficients,  rinner =    0.950   0.950   0.950


     atomic species   valence    mass     pseudopotential
        C              4.00    12.01070     C ( 1.00)
        F              7.00    18.99840     F ( 1.00)

      8 Sym. Ops., with inversion, found ( 4 have fractional translation)



   Cartesian axes

     site n.     atom                  positions (alat units)
         1           C   tau(   1) = (   0.5000000   0.2256478   0.1937169  )
         2           C   tau(   2) = (   0.0000000   1.0227422  -0.1937169  )
         3           C   tau(   3) = (   0.0000000   0.5714467   0.1937169  )
         4           C   tau(   4) = (   0.5000000   1.3685411  -0.1937169  )
         5           F   tau(   5) = (   0.5000000  -0.0095812  -0.6719762  )
         6           F   tau(   6) = (   0.0000000   0.7875132   0.6719762  )
         7           F   tau(   7) = (   0.0000000   0.8066757  -0.6719762  )
         8           F   tau(   8) = (   0.5000000   0.0095812   0.6719762  )

     number of k points=    25  Marzari-Vanderbilt smearing, width (Ry)=  0.0200
                       cart. coord. in units 2pi/alat
        k(    1) = (   0.0000000   0.0000000   0.0000000), wk =   0.0246914
        k(    2) = (   0.0000000   0.0696976   0.0000000), wk =   0.0493827
        k(    3) = (   0.0000000   0.1393952   0.0000000), wk =   0.0493827
        k(    4) = (   0.0000000   0.2090927   0.0000000), wk =   0.0493827
        k(    5) = (   0.0000000   0.2787903   0.0000000), wk =   0.0493827
        k(    6) = (   0.1111111   0.0000000   0.0000000), wk =   0.0493827
        k(    7) = (   0.1111111   0.0696976   0.0000000), wk =   0.0987654
        k(    8) = (   0.1111111   0.1393952   0.0000000), wk =   0.0987654
        k(    9) = (   0.1111111   0.2090927   0.0000000), wk =   0.0987654
        k(   10) = (   0.1111111   0.2787903   0.0000000), wk =   0.0987654
        k(   11) = (   0.2222222   0.0000000   0.0000000), wk =   0.0493827
        k(   12) = (   0.2222222   0.0696976   0.0000000), wk =   0.0987654
        k(   13) = (   0.2222222   0.1393952   0.0000000), wk =   0.0987654
        k(   14) = (   0.2222222   0.2090927   0.0000000), wk =   0.0987654
        k(   15) = (   0.2222222   0.2787903   0.0000000), wk =   0.0987654
        k(   16) = (   0.3333333   0.0000000   0.0000000), wk =   0.0493827
        k(   17) = (   0.3333333   0.0696976   0.0000000), wk =   0.0987654
        k(   18) = (   0.3333333   0.1393952   0.0000000), wk =   0.0987654
        k(   19) = (   0.3333333   0.2090927   0.0000000), wk =   0.0987654
        k(   20) = (   0.3333333   0.2787903   0.0000000), wk =   0.0987654
        k(   21) = (   0.4444444   0.0000000   0.0000000), wk =   0.0493827
        k(   22) = (   0.4444444   0.0696976   0.0000000), wk =   0.0987654
        k(   23) = (   0.4444444   0.1393952   0.0000000), wk =   0.0987654
        k(   24) = (   0.4444444   0.2090927   0.0000000), wk =   0.0987654
        k(   25) = (   0.4444444   0.2787903   0.0000000), wk =   0.0987654

     Dense  grid:  3315121 G-vectors     FFT dimensions: (  90, 144, 500)

     Estimated max dynamical RAM per process >     127.03 MB

     Estimated total dynamical RAM >       9.30 GB

     Initial potential from superposition of free atoms

     starting charge      43.9998, renormalised to      44.0000

     negative rho (up, down):  8.932E-03 0.000E+00
     Starting wfcs are   32 randomized atomic wfcs

     total cpu time spent up to now is       64.8 secs

     Self-consistent Calculation

     iteration #  1     ecut=   800.00 Ry     beta= 0.70
     Davidson diagonalization with overlap
     ethr =  1.00E-02,  avg # of iterations =  5.3

     negative rho (up, down):  2.376E-03 0.000E+00

     total cpu time spent up to now is      449.7 secs

     total energy              =    -240.09739865 Ry
     estimated scf accuracy    <       0.44904247 Ry

     iteration #  2     ecut=   800.00 Ry     beta= 0.70
     Davidson diagonalization with overlap
     ethr =  1.02E-03,  avg # of iterations =  4.4

     negative rho (up, down):  1.480E-03 0.000E+00

     total cpu time spent up to now is      782.8 secs

     total energy              =    -240.12449903 Ry
     estimated scf accuracy    <       0.45188167 Ry

     iteration #  3     ecut=   800.00 Ry     beta= 0.70
     Davidson diagonalization with overlap
     ethr =  1.02E-03,  avg # of iterations =  2.1

     negative rho (up, down):  2.674E-04 0.000E+00

     total cpu time spent up to now is      991.7 secs

     total energy              =    -240.24473600 Ry
     estimated scf accuracy    <       0.01969280 Ry

     iteration #  4     ecut=   800.00 Ry     beta= 0.70
     Davidson diagonalization with overlap
     ethr =  4.48E-05,  avg # of iterations =  4.7

     negative rho (up, down):  4.972E-05 0.000E+00

     total cpu time spent up to now is     1329.6 secs

     total energy              =    -240.24708274 Ry
     estimated scf accuracy    <       0.00175410 Ry

     iteration #  5     ecut=   800.00 Ry     beta= 0.70
     Davidson diagonalization with overlap
     ethr =  3.99E-06,  avg # of iterations =  4.9

     negative rho (up, down):  4.927E-07 0.000E+00

     total cpu time spent up to now is     1682.4 secs

     total energy              =    -240.24744040 Ry
     estimated scf accuracy    <       0.00002413 Ry

     iteration #  6     ecut=   800.00 Ry     beta= 0.70
     Davidson diagonalization with overlap
     ethr =  5.48E-08,  avg # of iterations =  4.1

     negative rho (up, down):  8.888E-07 0.000E+00

     total cpu time spent up to now is     2005.6 secs

     total energy              =    -240.24745251 Ry
     estimated scf accuracy    <       0.00002190 Ry

     iteration #  7     ecut=   800.00 Ry     beta= 0.70
     Davidson diagonalization with overlap
     ethr =  4.98E-08,  avg # of iterations =  1.9

     negative rho (up, down):  1.011E-06 0.000E+00

     total cpu time spent up to now is     2196.3 secs

     total energy              =    -240.24745354 Ry
     estimated scf accuracy    <       0.00000199 Ry

     iteration #  8     ecut=   800.00 Ry     beta= 0.70
     Davidson diagonalization with overlap
     ethr =  4.53E-09,  avg # of iterations =  3.1

     negative rho (up, down):  1.043E-06 0.000E+00

     total cpu time spent up to now is     2464.5 secs

     total energy              =    -240.24745434 Ry
     estimated scf accuracy    <       0.00000053 Ry

     iteration #  9     ecut=   800.00 Ry     beta= 0.70
     Davidson diagonalization with overlap
     ethr =  1.20E-09,  avg # of iterations =  2.0

     negative rho (up, down):  9.811E-07 0.000E+00

     total cpu time spent up to now is     2660.0 secs

     total energy              =    -240.24745442 Ry
     estimated scf accuracy    <       0.00000001 Ry

     iteration # 10     ecut=   800.00 Ry     beta= 0.70
     Davidson diagonalization with overlap
     ethr =  2.37E-11,  avg # of iterations =  3.9

     negative rho (up, down):  9.623E-07 0.000E+00

     total cpu time spent up to now is     2973.4 secs

     End of self-consistent calculation

          k = 0.0000 0.0000 0.0000 (414417 PWs)   bands (ev):

   -28.1834 -27.9022 -26.6494 -26.5318 -18.8098 -15.5402 -13.5842 -11.1232
   -10.3489  -9.9809  -8.6995  -8.2805  -7.6842  -7.5566  -7.3229  -5.4480
    -5.3045  -5.2488  -4.5965  -4.2727  -4.0437  -2.7239   0.8195   3.2719
     3.3854   4.4163

          k = 0.0000 0.0697 0.0000 (414341 PWs)   bands (ev):

   -28.1535 -27.8805 -26.6851 -26.5656 -18.7490 -15.7621 -13.3993 -11.0867
   -10.2359 -10.0143  -8.6504  -8.2937  -7.7774  -7.4624  -7.3375  -5.4949
    -5.3765  -5.3392  -4.6556  -4.2413  -4.0042  -2.7761   0.9617   3.2976
     3.3799   4.6003

          k = 0.0000 0.1394 0.0000 (414455 PWs)   bands (ev):

   -28.0685 -27.8231 -26.7795 -26.6586 -18.5684 -16.2587 -12.9912 -11.0546
   -10.0359  -9.9385  -8.5079  -8.3458  -8.0327  -7.3955  -7.2106  -5.6581
    -5.6039  -5.4307  -4.7835  -4.2399  -3.8947  -2.9159   1.3474   3.3474
     3.3736   5.1158

          k = 0.0000 0.2091 0.0000 (414478 PWs)   bands (ev):

   -27.9447 -27.7579 -26.8919 -26.7860 -18.2733 -16.8306 -12.5130 -11.2093
    -9.8637  -9.5572  -8.4677  -8.4105  -8.2876  -7.5279  -6.8618  -5.9606
    -5.6995  -5.5492  -4.8691  -4.3656  -3.7334  -3.1088   1.8841   3.2349
     3.4992   4.3677

          k = 0.0000 0.2788 0.0000 (414390 PWs)   bands (ev):

   -27.8161 -27.7412 -26.9515 -26.9046 -17.8733 -17.3839 -12.0237 -11.5667
    -9.5039  -9.2692  -8.7696  -8.6741  -8.0187  -7.7470  -6.5172  -6.2335
    -5.7196  -5.6585  -4.8088  -4.5978  -3.5376  -3.3235   2.4629   2.9512
     3.6832   3.9647

          k = 0.1111 0.0000 0.0000 (414347 PWs)   bands (ev):

   -28.0993 -27.8281 -26.6474 -26.5320 -18.6560 -15.3908 -13.5223 -10.9999
   -10.2737 -10.0027  -9.3979  -8.3832  -7.7870  -7.6322  -7.4610  -5.7737
    -5.5924  -5.3186  -4.6936  -4.3840  -4.1912  -3.2726   1.0600   4.0619
     4.1786   4.3919

          k = 0.1111 0.0697 0.0000 (414448 PWs)   bands (ev):

   -28.0706 -27.8074 -26.6807 -26.5636 -18.5958 -15.6175 -13.3352 -10.9754
   -10.1819 -10.0374  -9.3378  -8.4122  -7.8019  -7.7278  -7.3694  -5.8378
    -5.6205  -5.3260  -4.7101  -4.3603  -4.2081  -3.3345   1.1841   4.1710
     4.2296   4.4090

          k = 0.1111 0.1394 0.0000 (414429 PWs)   bands (ev):

   -27.9892 -27.7526 -26.7686 -26.6507 -18.4169 -16.1187 -12.9308 -10.9774
   -10.0644  -9.9566  -9.1584  -8.5071  -7.9702  -7.8472  -7.1310  -5.9310
    -5.6811  -5.4356  -4.7753  -4.2770  -4.2685  -3.4751   1.5309   4.1082
     4.4564   4.6237

          k = 0.1111 0.2091 0.0000 (414438 PWs)   bands (ev):

   -27.8706 -27.6906 -26.8733 -26.7705 -18.1244 -16.6905 -12.4647 -11.1665
    -9.9235  -9.7036  -8.9172  -8.6697  -8.2571  -7.9318  -6.7987  -5.9730
    -5.7351  -5.6712  -4.8508  -4.4408  -4.1165  -3.6220   2.0405   3.8335
     4.5215   4.7150

          k = 0.1111 0.2788 0.0000 (414430 PWs)   bands (ev):

   -27.7474 -27.6753 -26.9281 -26.8827 -17.7276 -17.2415 -11.9881 -11.5358
    -9.6575  -9.5394  -8.8749  -8.8462  -8.2816  -8.0814  -6.4431  -6.1186
    -5.8116  -5.7771  -4.8343  -4.6684  -3.9399  -3.7706   2.6474   3.2844
     4.5856   4.6401

          k = 0.2222 0.0000 0.0000 (414405 PWs)   bands (ev):

   -27.8653 -27.6224 -26.6594 -26.5476 -18.1984 -14.9499 -13.4534 -10.7346
   -10.6580 -10.1878 -10.0749  -8.7789  -8.7616  -7.7478  -7.2011  -6.2214
    -6.2161  -5.6456  -5.2523  -4.6727  -4.2690  -4.2415   1.6435   3.8187
     5.5378   6.0161

          k = 0.2222 0.0697 0.0000 (414417 PWs)   bands (ev):

   -27.8404 -27.6047 -26.6855 -26.5730 -18.1399 -15.1932 -13.2672 -10.7187
   -10.6831 -10.2425  -9.9396  -8.9562  -8.5980  -7.8533  -7.1481  -6.2334
    -6.2028  -5.5604  -5.1965  -4.6693  -4.4079  -4.2378   1.7332   3.9780
     5.5091   6.0409

          k = 0.2222 0.1394 0.0000 (414345 PWs)   bands (ev):

   -27.7700 -27.5583 -26.7546 -26.6434 -17.9662 -15.7067 -12.8969 -10.8389
   -10.6534 -10.3131  -9.6128  -9.1220  -8.4600  -8.1050  -6.9931  -6.2130
    -6.1695  -5.4580  -5.0759  -4.6570  -4.6524  -4.3040   1.9995   4.3739
     5.3213   5.9283

          k = 0.2222 0.2091 0.0000 (414324 PWs)   bands (ev):

   -27.6675 -27.5067 -26.8366 -26.7413 -17.6817 -16.2769 -12.4891 -11.1846
   -10.5384 -10.3096  -9.2782  -9.2297  -8.3732  -8.3553  -6.7451  -6.1438
    -6.1149  -5.5921  -5.0056  -4.8669  -4.5824  -4.3605   2.4320   4.3749
     5.3012   5.9335

          k = 0.2222 0.2788 0.0000 (414405 PWs)   bands (ev):

   -27.5608 -27.4965 -26.8765 -26.8350 -17.2950 -16.8194 -12.0617 -11.6175
   -10.4096 -10.3222  -9.2352  -9.1718  -8.4199  -8.3642  -6.4177  -6.1307
    -6.0407  -5.9103  -5.0140  -4.9863  -4.4676  -4.3917   3.0110   3.6997
     5.7562   6.0251

          k = 0.3333 0.0000 0.0000 (414297 PWs)   bands (ev):

   -27.5348 -27.3323 -26.7299 -26.6165 -17.4469 -14.2395 -13.9474 -11.4991
   -10.9806 -10.2688  -9.8298  -9.3684  -9.3493  -8.0925  -7.0380  -6.5413
    -6.3830  -6.2863  -5.8601  -4.9902  -4.8382  -4.5842   2.3900   4.0392
     5.5442   6.9372

          k = 0.3333 0.0697 0.0000 (414319 PWs)   bands (ev):

   -27.5167 -27.3201 -26.7452 -26.6325 -17.3917 -14.5518 -13.7584 -11.3970
   -11.1609 -10.2993  -9.7618  -9.5417  -9.0660  -8.1950  -6.9617  -6.5905
    -6.3904  -6.1508  -5.7384  -5.1422  -4.8081  -4.5391   2.4518   4.1384
     5.4963   6.7883

          k = 0.3333 0.1394 0.0000 (414392 PWs)   bands (ev):

   -27.4653 -27.2889 -26.7854 -26.6775 -17.2274 -15.0671 -13.5218 -11.5744
   -11.1759 -10.3953  -9.6163  -9.6154  -8.7566  -8.3651  -6.8371  -6.6006
    -6.3599  -5.8797  -5.5119  -5.4172  -4.7340  -4.5368   2.6465   4.3936
     5.3284   6.2916

          k = 0.3333 0.2091 0.0000 (414310 PWs)   bands (ev):

   -27.3907 -27.2570 -26.8306 -26.7418 -16.9579 -15.6168 -13.2551 -12.0568
   -10.9529 -10.5120  -9.6464  -9.5478  -8.5115  -8.4124  -6.7655  -6.4288
    -6.3773  -5.6600  -5.5963  -5.3482  -4.6559  -4.5998   2.9924   4.5318
     5.1443   5.8794

          k = 0.3333 0.2788 0.0000 (414276 PWs)   bands (ev):

   -27.3115 -27.2586 -26.8446 -26.8073 -16.5903 -16.1365 -12.9243 -12.5204
   -10.7706 -10.6301  -9.6438  -9.5946  -8.3760  -8.3628  -6.6616  -6.5075
    -6.1472  -5.8639  -5.4136  -5.3201  -4.6262  -4.6188   3.4918   4.0859
     5.3205   5.5705

          k = 0.4444 0.0000 0.0000 (414352 PWs)   bands (ev):

   -27.1872 -27.0266 -26.9034 -26.7746 -16.4204 -15.1723 -13.2953 -12.1685
   -11.2401 -10.6112  -9.6359  -9.5140  -9.2041  -8.6156  -7.1616  -6.8997
    -6.3601  -6.2214  -6.1202  -5.5730  -4.9440  -4.8758   3.2728   4.3492
     4.7535   5.8827

          k = 0.4444 0.0697 0.0000 (414411 PWs)   bands (ev):

   -27.1789 -27.0236 -26.9051 -26.7797 -16.3708 -15.1393 -13.4907 -12.3772
   -11.1121 -10.5328  -9.6752  -9.6557  -9.0105  -8.6232  -7.0391  -6.7813
    -6.4609  -6.4014  -5.8964  -5.6284  -4.8866  -4.7998   3.3169   4.3716
     4.7517   5.7338

          k = 0.4444 0.1394 0.0000 (414326 PWs)   bands (ev):

   -27.1555 -27.0190 -26.9066 -26.7946 -16.2231 -15.0594 -13.9005 -12.8349
   -10.8815 -10.4465  -9.8642  -9.7407  -8.7137  -8.5586  -6.7860  -6.6670
    -6.5681  -6.4481  -5.6797  -5.6623  -4.7655  -4.6987   3.4582   4.4245
     4.7797   5.4572

          k = 0.4444 0.2091 0.0000 (414248 PWs)   bands (ev):

   -27.1214 -27.0247 -26.8985 -26.8180 -15.9823 -15.0470 -14.2129 -13.3416
   -10.7074 -10.4675  -9.9582  -9.8665  -8.4593  -8.4101  -6.8921  -6.7453
    -6.3590  -6.0783  -5.6421  -5.5431  -4.6784  -4.6757   3.7035   4.3998
     4.9438   5.2476

          k = 0.4444 0.2788 0.0000 (414222 PWs)   bands (ev):

   -27.0829 -27.0478 -26.8764 -26.8469 -15.6612 -15.2997 -14.1385 -13.7992
   -10.6066 -10.5364  -9.9819  -9.9554  -8.3136  -8.3019  -6.9490  -6.8944
    -5.9927  -5.7775  -5.6818  -5.5432  -4.6857  -4.6687   4.0053   4.2551
     5.1340   5.1743

     the Fermi energy is    -0.4824 ev

!    total energy              =    -240.24745442 Ry
     estimated scf accuracy    <          1.4E-09 Ry
     smearing contrib. (-TS)   =      -0.00000000 Ry
     internal energy E=F+TS    =    -240.24745442 Ry

     The total energy is F=E-TS. E is the sum of the following terms:
     one-electron contribution =   -1256.48202036 Ry
     hartree contribution      =     642.01117012 Ry
     xc contribution           =     -51.69327689 Ry
     ewald contribution        =     425.91667271 Ry

     convergence has been achieved in  10 iterations

     negative rho (up, down):  9.623E-07 0.000E+00

     Forces acting on atoms (cartesian axes, Ry/au):

     atom    1 type  1   force =     0.00000000   -0.00004144   -0.00000565
     atom    2 type  1   force =     0.00000000   -0.00004144    0.00000565
     atom    3 type  1   force =     0.00000000    0.00004144   -0.00000565
     atom    4 type  1   force =     0.00000000    0.00004144    0.00000565
     atom    5 type  2   force =     0.00000000   -0.00003201   -0.00002438
     atom    6 type  2   force =     0.00000000   -0.00003201    0.00002438
     atom    7 type  2   force =     0.00000000    0.00003201   -0.00002438
     atom    8 type  2   force =     0.00000000    0.00003201    0.00002438

     Total force =     0.000116     Total SCF correction =     0.000184
     SCF correction compared to forces is large: reduce conv_thr to get better values


     Computing stress (Cartesian axis) and pressure


     negative rho (up, down):  9.623E-07 0.000E+00
          total   stress  (Ry/bohr**3)                   (kbar)     P=       -0.03
  -0.00000048   0.00000000   0.00000000           -0.07        0.00        0.00
   0.00000000  -0.00000017   0.00000000            0.00       -0.02        0.00
   0.00000000   0.00000000   0.00000000            0.00        0.00        0.00


     Writing all to output data dir ../tmp/fgz.save/

     init_run     :     36.32s CPU     64.18s WALL (       1 calls)
     electrons    :   1628.77s CPU   2909.14s WALL (       1 calls)
     forces       :     29.55s CPU     58.11s WALL (       1 calls)
     stress       :     23.22s CPU     47.61s WALL (       1 calls)

     Called by init_run:
     wfcinit      :     34.09s CPU     61.57s WALL (       1 calls)
     potinit      :      0.29s CPU      0.30s WALL (       1 calls)
     hinit0       :      0.60s CPU      0.61s WALL (       1 calls)

     Called by electrons:
     c_bands      :   1568.64s CPU   2776.02s WALL (      10 calls)
     sum_band     :     56.55s CPU    126.71s WALL (      10 calls)
     v_of_rho     :      0.58s CPU      0.63s WALL (      11 calls)
     newd         :      2.24s CPU      4.94s WALL (      11 calls)
     mix_rho      :      0.52s CPU      0.50s WALL (      10 calls)

     Called by c_bands:
     init_us_2    :      0.78s CPU      1.57s WALL (     575 calls)
     init_us_2:cp :      0.77s CPU      1.57s WALL (     575 calls)
     cegterg      :   1500.04s CPU   2647.21s WALL (     250 calls)

     Called by *egterg:
     cdiaghg      :    152.54s CPU    117.25s WALL (    1157 calls)
     h_psi        :    384.42s CPU    889.22s WALL (    1182 calls)
     s_psi        :     16.17s CPU     41.28s WALL (    1182 calls)
     g_psi        :      0.38s CPU      0.46s WALL (     907 calls)

     Called by h_psi:
     h_psi:calbec :    219.20s CPU    538.04s WALL (    1182 calls)
     vloc_psi     :     90.55s CPU     99.14s WALL (    1182 calls)
     add_vuspsi   :     74.36s CPU    251.49s WALL (    1182 calls)

     General routines
     calbec       :    304.35s CPU    722.80s WALL (    1557 calls)
     fft          :      0.83s CPU      0.90s WALL (     146 calls)
     ffts         :      0.05s CPU      0.07s WALL (      10 calls)
     fftw         :     95.21s CPU    103.86s WALL (   43416 calls)

     Parallel routines

     PWSCF        :  28m40.11s CPU  51m32.93s WALL


   This run was terminated on:  20:36:12  19Jan2024            

=------------------------------------------------------------------------------=
   JOB DONE.
=------------------------------------------------------------------------------=
