
     Program PWSCF v.7.1 starts on 19Jan2024 at 16: 8:27 

     This program is part of the open-source Quantum ESPRESSO suite
     for quantum simulation of materials; please cite
         "P. Giannozzi et al., J. Phys.:Condens. Matter 21 395502 (2009);
         "P. Giannozzi et al., J. Phys.:Condens. Matter 29 465901 (2017);
         "P. Giannozzi et al., J. Chem. Phys. 152 154105 (2020);
          URL http://www.quantum-espresso.org", 
     in publications or presentations arising from this work. More details at
     http://www.quantum-espresso.org/quote

     Parallel version (MPI), running on    75 processors

     MPI processes distributed on     1 nodes
     350711 MiB available memory on the printing compute node when the environment starts

     Reading input from ecut.300.in

     Current dimensions of program PWSCF are:
     Max number of different atomic species (ntypx) = 10
     Max number of k-points (npk) =  40000
     Max angular momentum in pseudopotentials (lmaxx) =  4
     Message from routine setup:
     using ibrav=0 with symmetry is DISCOURAGED, use correct ibrav instead

     R & G space division:  proc/nbgrp/npool/nimage =      75
     Subspace diagonalization in iterative solution of the eigenvalue problem:
     a serial algorithm will be used


     Parallelization info
     --------------------
     sticks:   dense  smooth     PW     G-vecs:    dense   smooth      PW
     Min          50      50     13                10148    10148    1412
     Max          51      51     14                10159    10159    1430
     Sum        3765    3765   1021               761471   761471  106549

     Using Slab Decomposition



     bravais-lattice index     =            0
     lattice parameter (alat)  =       4.9702  a.u.
     unit-cell volume          =    1084.4437 (a.u.)^3
     number of atoms/cell      =            8
     number of atomic types    =            2
     number of electrons       =        44.00
     number of Kohn-Sham states=           26
     kinetic-energy cutoff     =     300.0000  Ry
     charge density cutoff     =    1200.0000  Ry
     scf convergence threshold =      1.0E-08
     mixing beta               =       0.7000
     number of iterations used =            8  plain     mixing
     Exchange-correlation=  SLA  PW   PBX  PBC
                           (   1   4   3   4   0   0   0)

     celldm(1)=   4.970237  celldm(2)=   0.000000  celldm(3)=   0.000000
     celldm(4)=   0.000000  celldm(5)=   0.000000  celldm(6)=   0.000000

     crystal axes: (cart. coord. in units of alat)
               a(1) = (   1.000000   0.000000   0.000000 )  
               a(2) = (   0.000000   1.594189   0.000000 )  
               a(3) = (   0.000000   0.000000   5.540333 )  

     reciprocal axes: (cart. coord. in units 2 pi/alat)
               b(1) = (  1.000000  0.000000  0.000000 )  
               b(2) = (  0.000000  0.627278  0.000000 )  
               b(3) = (  0.000000  0.000000  0.180495 )  


     PseudoPot. # 1 for C  read from file:
     ../pseudo/c_pbe_v1.2.uspp.F.UPF
     MD5 check sum: d1aef80898a10debaa0f26306b886e00
     Pseudo is Ultrasoft + core correction, Zval =  4.0
     Generated by new atomic code, or converted to UPF format
     Using radial grid of  721 points,  4 beta functions with: 
                l(1) =   0
                l(2) =   0
                l(3) =   1
                l(4) =   1
     Q(r) pseudized with  8 coefficients,  rinner =    1.100   1.100   1.100


     PseudoPot. # 2 for F  read from file:
     ../pseudo/f_pbe_v1.4.uspp.F.UPF
     MD5 check sum: 4c38b6a325caf53ec0e86aed9459de46
     Pseudo is Ultrasoft, Zval =  7.0
     Generated by new atomic code, or converted to UPF format
     Using radial grid of  799 points,  4 beta functions with: 
                l(1) =   0
                l(2) =   0
                l(3) =   1
                l(4) =   1
     Q(r) pseudized with  8 coefficients,  rinner =    0.950   0.950   0.950


     atomic species   valence    mass     pseudopotential
        C              4.00    12.01070     C ( 1.00)
        F              7.00    18.99840     F ( 1.00)

      8 Sym. Ops., with inversion, found ( 4 have fractional translation)



   Cartesian axes

     site n.     atom                  positions (alat units)
         1           C   tau(   1) = (   0.5000000   0.2256478   0.1937169  )
         2           C   tau(   2) = (   0.0000000   1.0227422  -0.1937169  )
         3           C   tau(   3) = (   0.0000000   0.5714467   0.1937169  )
         4           C   tau(   4) = (   0.5000000   1.3685411  -0.1937169  )
         5           F   tau(   5) = (   0.5000000  -0.0095812  -0.6719762  )
         6           F   tau(   6) = (   0.0000000   0.7875132   0.6719762  )
         7           F   tau(   7) = (   0.0000000   0.8066757  -0.6719762  )
         8           F   tau(   8) = (   0.5000000   0.0095812   0.6719762  )

     number of k points=    25  Marzari-Vanderbilt smearing, width (Ry)=  0.0200
                       cart. coord. in units 2pi/alat
        k(    1) = (   0.0000000   0.0000000   0.0000000), wk =   0.0246914
        k(    2) = (   0.0000000   0.0696976   0.0000000), wk =   0.0493827
        k(    3) = (   0.0000000   0.1393952   0.0000000), wk =   0.0493827
        k(    4) = (   0.0000000   0.2090927   0.0000000), wk =   0.0493827
        k(    5) = (   0.0000000   0.2787903   0.0000000), wk =   0.0493827
        k(    6) = (   0.1111111   0.0000000   0.0000000), wk =   0.0493827
        k(    7) = (   0.1111111   0.0696976   0.0000000), wk =   0.0987654
        k(    8) = (   0.1111111   0.1393952   0.0000000), wk =   0.0987654
        k(    9) = (   0.1111111   0.2090927   0.0000000), wk =   0.0987654
        k(   10) = (   0.1111111   0.2787903   0.0000000), wk =   0.0987654
        k(   11) = (   0.2222222   0.0000000   0.0000000), wk =   0.0493827
        k(   12) = (   0.2222222   0.0696976   0.0000000), wk =   0.0987654
        k(   13) = (   0.2222222   0.1393952   0.0000000), wk =   0.0987654
        k(   14) = (   0.2222222   0.2090927   0.0000000), wk =   0.0987654
        k(   15) = (   0.2222222   0.2787903   0.0000000), wk =   0.0987654
        k(   16) = (   0.3333333   0.0000000   0.0000000), wk =   0.0493827
        k(   17) = (   0.3333333   0.0696976   0.0000000), wk =   0.0987654
        k(   18) = (   0.3333333   0.1393952   0.0000000), wk =   0.0987654
        k(   19) = (   0.3333333   0.2090927   0.0000000), wk =   0.0987654
        k(   20) = (   0.3333333   0.2787903   0.0000000), wk =   0.0987654
        k(   21) = (   0.4444444   0.0000000   0.0000000), wk =   0.0493827
        k(   22) = (   0.4444444   0.0696976   0.0000000), wk =   0.0987654
        k(   23) = (   0.4444444   0.1393952   0.0000000), wk =   0.0987654
        k(   24) = (   0.4444444   0.2090927   0.0000000), wk =   0.0987654
        k(   25) = (   0.4444444   0.2787903   0.0000000), wk =   0.0987654

     Dense  grid:   761471 G-vectors     FFT dimensions: (  60,  90, 320)

     Estimated max dynamical RAM per process >      30.58 MB

     Estimated total dynamical RAM >       2.24 GB

     Initial potential from superposition of free atoms

     starting charge      43.9998, renormalised to      44.0000

     negative rho (up, down):  4.173E-04 0.000E+00
     Starting wfcs are   32 randomized atomic wfcs

     total cpu time spent up to now is       61.0 secs

     Self-consistent Calculation

     iteration #  1     ecut=   300.00 Ry     beta= 0.70
     Davidson diagonalization with overlap
     ethr =  1.00E-02,  avg # of iterations =  2.4

     Threshold (ethr) on eigenvalues was too large:
     Diagonalizing with lowered threshold

     Davidson diagonalization with overlap
     ethr =  9.76E-04,  avg # of iterations =  1.0

     negative rho (up, down):  1.151E-04 0.000E+00

     total cpu time spent up to now is      421.7 secs

     total energy              =    -240.14514326 Ry
     estimated scf accuracy    <       0.41874979 Ry

     iteration #  2     ecut=   300.00 Ry     beta= 0.70
     Davidson diagonalization with overlap
     ethr =  9.52E-04,  avg # of iterations =  3.0

     negative rho (up, down):  6.891E-05 0.000E+00

     total cpu time spent up to now is      672.0 secs

     total energy              =    -240.16239605 Ry
     estimated scf accuracy    <       0.29509443 Ry

     iteration #  3     ecut=   300.00 Ry     beta= 0.70
     Davidson diagonalization with overlap
     ethr =  6.71E-04,  avg # of iterations =  2.4

     negative rho (up, down):  2.994E-05 0.000E+00

     total cpu time spent up to now is      884.1 secs

     total energy              =    -240.24260146 Ry
     estimated scf accuracy    <       0.03019922 Ry

     iteration #  4     ecut=   300.00 Ry     beta= 0.70
     Davidson diagonalization with overlap
     ethr =  6.86E-05,  avg # of iterations =  2.3

     negative rho (up, down):  2.856E-05 0.000E+00

     total cpu time spent up to now is     1090.8 secs

     total energy              =    -240.24661916 Ry
     estimated scf accuracy    <       0.00084935 Ry

     iteration #  5     ecut=   300.00 Ry     beta= 0.70
     Davidson diagonalization with overlap
     ethr =  1.93E-06,  avg # of iterations =  6.7

     negative rho (up, down):  2.926E-05 0.000E+00

     total cpu time spent up to now is     1538.9 secs

     total energy              =    -240.24690730 Ry
     estimated scf accuracy    <       0.00004384 Ry

     iteration #  6     ecut=   300.00 Ry     beta= 0.70
     Davidson diagonalization with overlap
     ethr =  9.96E-08,  avg # of iterations =  2.0

     negative rho (up, down):  2.936E-05 0.000E+00

     total cpu time spent up to now is     1733.2 secs

     total energy              =    -240.24691237 Ry
     estimated scf accuracy    <       0.00000289 Ry

     iteration #  7     ecut=   300.00 Ry     beta= 0.70
     Davidson diagonalization with overlap
     ethr =  6.56E-09,  avg # of iterations =  3.2

     negative rho (up, down):  2.936E-05 0.000E+00

     total cpu time spent up to now is     1995.7 secs

     total energy              =    -240.24691346 Ry
     estimated scf accuracy    <       0.00000058 Ry

     iteration #  8     ecut=   300.00 Ry     beta= 0.70
     Davidson diagonalization with overlap
     ethr =  1.31E-09,  avg # of iterations =  2.0

     negative rho (up, down):  2.936E-05 0.000E+00

     total cpu time spent up to now is     2187.5 secs

     total energy              =    -240.24691360 Ry
     estimated scf accuracy    <       0.00000001 Ry

     iteration #  9     ecut=   300.00 Ry     beta= 0.70
     Davidson diagonalization with overlap
     ethr =  2.51E-11,  avg # of iterations =  3.0

     negative rho (up, down):  2.936E-05 0.000E+00

     total cpu time spent up to now is     2432.9 secs

     End of self-consistent calculation

          k = 0.0000 0.0000 0.0000 ( 95099 PWs)   bands (ev):

   -28.1834 -27.9022 -26.6495 -26.5319 -18.8100 -15.5404 -13.5843 -11.1231
   -10.3488  -9.9808  -8.6994  -8.2804  -7.6840  -7.5566  -7.3228  -5.4479
    -5.3044  -5.2488  -4.5964  -4.2724  -4.0435  -2.7236   0.8196   3.2719
     3.3858   4.4169

          k = 0.0000 0.0697 0.0000 ( 95151 PWs)   bands (ev):

   -28.1535 -27.8805 -26.6852 -26.5656 -18.7492 -15.7623 -13.3994 -11.0866
   -10.2358 -10.0142  -8.6503  -8.2936  -7.7772  -7.4624  -7.3374  -5.4949
    -5.3764  -5.3392  -4.6555  -4.2410  -4.0040  -2.7758   0.9618   3.2976
     3.3802   4.6008

          k = 0.0000 0.1394 0.0000 ( 95136 PWs)   bands (ev):

   -28.0686 -27.8231 -26.7795 -26.6586 -18.5686 -16.2589 -12.9912 -11.0545
   -10.0358  -9.9384  -8.5078  -8.3457  -8.0326  -7.3953  -7.2106  -5.6580
    -5.6038  -5.4306  -4.7834  -4.2397  -3.8946  -2.9156   1.3475   3.3477
     3.3737   5.1157

          k = 0.0000 0.2091 0.0000 ( 95230 PWs)   bands (ev):

   -27.9447 -27.7579 -26.8919 -26.7860 -18.2735 -16.8308 -12.5130 -11.2093
    -9.8636  -9.5571  -8.4676  -8.4103  -8.2875  -7.5278  -6.8618  -5.9605
    -5.6994  -5.5491  -4.8691  -4.3654  -3.7331  -3.1085   1.8842   3.2351
     3.4993   4.3674

          k = 0.0000 0.2788 0.0000 ( 95282 PWs)   bands (ev):

   -27.8161 -27.7412 -26.9515 -26.9046 -17.8736 -17.3841 -12.0237 -11.5667
    -9.5038  -9.2691  -8.7694  -8.6740  -8.0185  -7.7468  -6.5171  -6.2334
    -5.7195  -5.6585  -4.8087  -4.5976  -3.5374  -3.3233   2.4630   2.9513
     3.6834   3.9650

          k = 0.1111 0.0000 0.0000 ( 95171 PWs)   bands (ev):

   -28.0993 -27.8281 -26.6475 -26.5320 -18.6563 -15.3910 -13.5224 -10.9998
   -10.2736 -10.0027  -9.3978  -8.3831  -7.7869  -7.6320  -7.4610  -5.7736
    -5.5923  -5.3186  -4.6935  -4.3839  -4.1909  -3.2723   1.0601   4.0614
     4.1790   4.3920

          k = 0.1111 0.0697 0.0000 ( 95148 PWs)   bands (ev):

   -28.0707 -27.8074 -26.6807 -26.5636 -18.5960 -15.6177 -13.3353 -10.9753
   -10.1818 -10.0374  -9.3377  -8.4121  -7.8017  -7.7276  -7.3694  -5.8378
    -5.6204  -5.3259  -4.7100  -4.3601  -4.2078  -3.3342   1.1842   4.1714
     4.2290   4.4092

          k = 0.1111 0.1394 0.0000 ( 95169 PWs)   bands (ev):

   -27.9892 -27.7527 -26.7686 -26.6507 -18.4171 -16.1189 -12.9309 -10.9773
   -10.0643  -9.9565  -9.1582  -8.5070  -7.9700  -7.8471  -7.1310  -5.9309
    -5.6811  -5.4355  -4.7752  -4.2767  -4.2684  -3.4749   1.5310   4.1085
     4.4566   4.6224

          k = 0.1111 0.2091 0.0000 ( 95155 PWs)   bands (ev):

   -27.8706 -27.6907 -26.8733 -26.7705 -18.1246 -16.6908 -12.4647 -11.1665
    -9.9234  -9.7035  -8.9170  -8.6695  -8.2569  -7.9317  -6.7987  -5.9729
    -5.7351  -5.6711  -4.8507  -4.4406  -4.1163  -3.6218   2.0406   3.8337
     4.5218   4.7148

          k = 0.1111 0.2788 0.0000 ( 95227 PWs)   bands (ev):

   -27.7475 -27.6754 -26.9281 -26.8827 -17.7278 -17.2417 -11.9881 -11.5358
    -9.6574  -9.5393  -8.8748  -8.8461  -8.2815  -8.0813  -6.4430  -6.1185
    -5.8115  -5.7770  -4.8342  -4.6682  -3.9397  -3.7704   2.6476   3.2845
     4.5860   4.6404

          k = 0.2222 0.0000 0.0000 ( 95133 PWs)   bands (ev):

   -27.8654 -27.6224 -26.6594 -26.5476 -18.1986 -14.9501 -13.4536 -10.7345
   -10.6579 -10.1878 -10.0748  -8.7787  -8.7615  -7.7476  -7.2011  -6.2213
    -6.2160  -5.6455  -5.2522  -4.6726  -4.2688  -4.2413   1.6436   3.8188
     5.5382   5.9772

          k = 0.2222 0.0697 0.0000 ( 95138 PWs)   bands (ev):

   -27.8405 -27.6048 -26.6855 -26.5730 -18.1402 -15.1934 -13.2673 -10.7186
   -10.6830 -10.2425  -9.9395  -8.9561  -8.5979  -7.8532  -7.1481  -6.2333
    -6.2027  -5.5603  -5.1964  -4.6692  -4.4078  -4.2376   1.7334   3.9780
     5.5096   6.0114

          k = 0.2222 0.1394 0.0000 ( 95135 PWs)   bands (ev):

   -27.7700 -27.5584 -26.7547 -26.6434 -17.9664 -15.7069 -12.8970 -10.8388
   -10.6533 -10.3131  -9.6127  -9.1219  -8.4599  -8.1048  -6.9931  -6.2129
    -6.1694  -5.4579  -5.0758  -4.6569  -4.6523  -4.3037   1.9997   4.3740
     5.3217   5.9237

          k = 0.2222 0.2091 0.0000 ( 95148 PWs)   bands (ev):

   -27.6675 -27.5067 -26.8366 -26.7413 -17.6820 -16.2771 -12.4891 -11.1846
   -10.5383 -10.3095  -9.2780  -9.2296  -8.3730  -8.3552  -6.7451  -6.1437
    -6.1148  -5.5920  -5.0055  -4.8668  -4.5822  -4.3603   2.4321   4.3751
     5.3015   5.9328

          k = 0.2222 0.2788 0.0000 ( 95167 PWs)   bands (ev):

   -27.5608 -27.4965 -26.8765 -26.8350 -17.2952 -16.8196 -12.0617 -11.6175
   -10.4095 -10.3221  -9.2351  -9.1717  -8.4197  -8.3640  -6.4176  -6.1306
    -6.0406  -5.9102  -5.0139  -4.9862  -4.4674  -4.3915   3.0112   3.7000
     5.7562   6.0250

          k = 0.3333 0.0000 0.0000 ( 95146 PWs)   bands (ev):

   -27.5349 -27.3323 -26.7300 -26.6165 -17.4471 -14.2397 -13.9476 -11.4990
   -10.9806 -10.2687  -9.8297  -9.3683  -9.3492  -8.0924  -7.0380  -6.5413
    -6.3829  -6.2863  -5.8600  -4.9901  -4.8381  -4.5840   2.3902   4.0393
     5.5446   6.9373

          k = 0.3333 0.0697 0.0000 ( 95124 PWs)   bands (ev):

   -27.5167 -27.3201 -26.7453 -26.6325 -17.3920 -14.5519 -13.7585 -11.3969
   -11.1609 -10.2992  -9.7617  -9.5416  -9.0659  -8.1949  -6.9617  -6.5904
    -6.3903  -6.1508  -5.7383  -5.1421  -4.8080  -4.5389   2.4521   4.1386
     5.4967   6.9200

          k = 0.3333 0.1394 0.0000 ( 95121 PWs)   bands (ev):

   -27.4654 -27.2889 -26.7854 -26.6775 -17.2277 -15.0673 -13.5220 -11.5744
   -11.1758 -10.3952  -9.6162  -9.6153  -8.7564  -8.3650  -6.8370  -6.6006
    -6.3599  -5.8796  -5.5118  -5.4171  -4.7339  -4.5366   2.6467   4.3937
     5.3289   6.2914

          k = 0.3333 0.2091 0.0000 ( 95155 PWs)   bands (ev):

   -27.3907 -27.2571 -26.8306 -26.7418 -16.9581 -15.6170 -13.2552 -12.0568
   -10.9528 -10.5119  -9.6463  -9.5476  -8.5114  -8.4123  -6.7654  -6.4287
    -6.3772  -5.6599  -5.5962  -5.3481  -4.6558  -4.5996   2.9927   4.5320
     5.1445   5.8794

          k = 0.3333 0.2788 0.0000 ( 95089 PWs)   bands (ev):

   -27.3116 -27.2586 -26.8447 -26.8073 -16.5905 -16.1367 -12.9243 -12.5205
   -10.7705 -10.6301  -9.6437  -9.5945  -8.3759  -8.3626  -6.6616  -6.5074
    -6.1471  -5.8638  -5.4135  -5.3201  -4.6260  -4.6186   3.4921   4.0862
     5.3206   5.5705

          k = 0.4444 0.0000 0.0000 ( 95126 PWs)   bands (ev):

   -27.1873 -27.0266 -26.9035 -26.7746 -16.4206 -15.1724 -13.2954 -12.1686
   -11.2400 -10.6111  -9.6358  -9.5139  -9.2040  -8.6155  -7.1615  -6.8997
    -6.3601  -6.2213  -6.1202  -5.5729  -4.9439  -4.8757   3.2731   4.3495
     4.7536   5.8828

          k = 0.4444 0.0697 0.0000 ( 95170 PWs)   bands (ev):

   -27.1790 -27.0236 -26.9051 -26.7797 -16.3710 -15.1395 -13.4908 -12.3772
   -11.1120 -10.5327  -9.6751  -9.6556  -9.0104  -8.6230  -7.0391  -6.7812
    -6.4608  -6.4013  -5.8964  -5.6284  -4.8865  -4.7996   3.3172   4.3720
     4.7518   5.7339

          k = 0.4444 0.1394 0.0000 ( 95115 PWs)   bands (ev):

   -27.1555 -27.0190 -26.9066 -26.7947 -16.2233 -15.0596 -13.9006 -12.8350
   -10.8814 -10.4464  -9.8641  -9.7406  -8.7136  -8.5584  -6.7859  -6.6669
    -6.5680  -6.4480  -5.6796  -5.6623  -4.7654  -4.6985   3.4584   4.4248
     4.7798   5.4573

          k = 0.4444 0.2091 0.0000 ( 95168 PWs)   bands (ev):

   -27.1214 -27.0248 -26.8986 -26.8180 -15.9825 -15.0472 -14.2130 -13.3417
   -10.7074 -10.4674  -9.9581  -9.8664  -8.4592  -8.4100  -6.8921  -6.7452
    -6.3589  -6.0782  -5.6420  -5.5430  -4.6782  -4.6755   3.7038   4.4001
     4.9438   5.2476

          k = 0.4444 0.2788 0.0000 ( 95154 PWs)   bands (ev):

   -27.0829 -27.0479 -26.8764 -26.8470 -15.6614 -15.2999 -14.1386 -13.7993
   -10.6065 -10.5363  -9.9818  -9.9553  -8.3135  -8.3018  -6.9490  -6.8943
    -5.9926  -5.7773  -5.6817  -5.5431  -4.6856  -4.6685   4.0056   4.2555
     5.1340   5.1743

     the Fermi energy is    -0.4823 ev

!    total energy              =    -240.24691361 Ry
     estimated scf accuracy    <          9.7E-10 Ry
     smearing contrib. (-TS)   =      -0.00000000 Ry
     internal energy E=F+TS    =    -240.24691361 Ry

     The total energy is F=E-TS. E is the sum of the following terms:
     one-electron contribution =   -1256.48097132 Ry
     hartree contribution      =     642.01057535 Ry
     xc contribution           =     -51.69319034 Ry
     ewald contribution        =     425.91667271 Ry

     convergence has been achieved in   9 iterations

     negative rho (up, down):  2.936E-05 0.000E+00

     Forces acting on atoms (cartesian axes, Ry/au):

     atom    1 type  1   force =     0.00000000   -0.00003725    0.00000246
     atom    2 type  1   force =     0.00000000   -0.00003725   -0.00000246
     atom    3 type  1   force =     0.00000000    0.00003725    0.00000246
     atom    4 type  1   force =     0.00000000    0.00003725   -0.00000246
     atom    5 type  2   force =     0.00000000   -0.00002859   -0.00002667
     atom    6 type  2   force =     0.00000000   -0.00002859    0.00002667
     atom    7 type  2   force =     0.00000000    0.00002859   -0.00002667
     atom    8 type  2   force =     0.00000000    0.00002859    0.00002667

     Total force =     0.000108     Total SCF correction =     0.000127
     SCF correction compared to forces is large: reduce conv_thr to get better values


     Computing stress (Cartesian axis) and pressure


     negative rho (up, down):  2.936E-05 0.000E+00
          total   stress  (Ry/bohr**3)                   (kbar)     P=       -0.06
  -0.00000064   0.00000000   0.00000000           -0.09        0.00        0.00
   0.00000000  -0.00000030   0.00000000            0.00       -0.04        0.00
   0.00000000   0.00000000  -0.00000018            0.00        0.00       -0.03


     Writing all to output data dir ../tmp/fgz.save/

     init_run     :     31.71s CPU     60.26s WALL (       1 calls)
     electrons    :   1304.48s CPU   2372.06s WALL (       1 calls)
     forces       :     35.66s CPU     65.56s WALL (       1 calls)
     stress       :      6.94s CPU     14.62s WALL (       1 calls)

     Called by init_run:
     wfcinit      :     30.96s CPU     59.28s WALL (       1 calls)
     potinit      :      0.07s CPU      0.07s WALL (       1 calls)
     hinit0       :      0.38s CPU      0.39s WALL (       1 calls)

     Called by electrons:
     c_bands      :   1253.25s CPU   2251.82s WALL (      10 calls)
     sum_band     :     49.29s CPU    116.60s WALL (      10 calls)
     v_of_rho     :      0.15s CPU      0.18s WALL (      10 calls)
     newd         :      1.40s CPU      3.05s WALL (      10 calls)
     mix_rho      :      0.23s CPU      0.25s WALL (      10 calls)

     Called by c_bands:
     init_us_2    :      0.10s CPU      0.25s WALL (     575 calls)
     init_us_2:cp :      0.10s CPU      0.25s WALL (     575 calls)
     cegterg      :   1180.56s CPU   2113.28s WALL (     250 calls)

     Called by *egterg:
     cdiaghg      :    120.80s CPU     95.10s WALL (     924 calls)
     h_psi        :    285.94s CPU    714.05s WALL (     974 calls)
     s_psi        :      9.12s CPU     25.84s WALL (     974 calls)
     g_psi        :      0.08s CPU      0.08s WALL (     699 calls)

     Called by h_psi:
     h_psi:calbec :    178.56s CPU    444.43s WALL (     974 calls)
     vloc_psi     :     50.60s CPU     63.31s WALL (     974 calls)
     add_vuspsi   :     56.74s CPU    205.66s WALL (     974 calls)

     General routines
     calbec       :    264.19s CPU    627.00s WALL (    1349 calls)
     fft          :      0.49s CPU      0.54s WALL (     136 calls)
     ffts         :      0.01s CPU      0.02s WALL (      10 calls)
     fftw         :     52.61s CPU     66.21s WALL (   41702 calls)

     Parallel routines

     PWSCF        :  23m 0.42s CPU  41m59.08s WALL


   This run was terminated on:  16:50:26  19Jan2024            

=------------------------------------------------------------------------------=
   JOB DONE.
=------------------------------------------------------------------------------=
