
     Program PWSCF v.7.1 starts on 19Jan2024 at 21:25:17 

     This program is part of the open-source Quantum ESPRESSO suite
     for quantum simulation of materials; please cite
         "P. Giannozzi et al., J. Phys.:Condens. Matter 21 395502 (2009);
         "P. Giannozzi et al., J. Phys.:Condens. Matter 29 465901 (2017);
         "P. Giannozzi et al., J. Chem. Phys. 152 154105 (2020);
          URL http://www.quantum-espresso.org", 
     in publications or presentations arising from this work. More details at
     http://www.quantum-espresso.org/quote

     Parallel version (MPI), running on    75 processors

     MPI processes distributed on     1 nodes
     346090 MiB available memory on the printing compute node when the environment starts

     Reading input from ecut.1000.in

     Current dimensions of program PWSCF are:
     Max number of different atomic species (ntypx) = 10
     Max number of k-points (npk) =  40000
     Max angular momentum in pseudopotentials (lmaxx) =  4
     Message from routine setup:
     using ibrav=0 with symmetry is DISCOURAGED, use correct ibrav instead

     R & G space division:  proc/nbgrp/npool/nimage =      75
     Subspace diagonalization in iterative solution of the eigenvalue problem:
     a serial algorithm will be used


     Parallelization info
     --------------------
     sticks:   dense  smooth     PW     G-vecs:    dense   smooth      PW
     Min         166     166     43                61740    61740    8207
     Max         167     167     44                61775    61775    8232
     Sum       12523   12523   3267              4632193  4632193  616361

     Using Slab Decomposition



     bravais-lattice index     =            0
     lattice parameter (alat)  =       4.9702  a.u.
     unit-cell volume          =    1084.4437 (a.u.)^3
     number of atoms/cell      =            8
     number of atomic types    =            2
     number of electrons       =        44.00
     number of Kohn-Sham states=           26
     kinetic-energy cutoff     =    1000.0000  Ry
     charge density cutoff     =    4000.0000  Ry
     scf convergence threshold =      1.0E-08
     mixing beta               =       0.7000
     number of iterations used =            8  plain     mixing
     Exchange-correlation=  SLA  PW   PBX  PBC
                           (   1   4   3   4   0   0   0)

     celldm(1)=   4.970237  celldm(2)=   0.000000  celldm(3)=   0.000000
     celldm(4)=   0.000000  celldm(5)=   0.000000  celldm(6)=   0.000000

     crystal axes: (cart. coord. in units of alat)
               a(1) = (   1.000000   0.000000   0.000000 )  
               a(2) = (   0.000000   1.594189   0.000000 )  
               a(3) = (   0.000000   0.000000   5.540333 )  

     reciprocal axes: (cart. coord. in units 2 pi/alat)
               b(1) = (  1.000000  0.000000  0.000000 )  
               b(2) = (  0.000000  0.627278  0.000000 )  
               b(3) = (  0.000000  0.000000  0.180495 )  


     PseudoPot. # 1 for C  read from file:
     ../pseudo/c_pbe_v1.2.uspp.F.UPF
     MD5 check sum: d1aef80898a10debaa0f26306b886e00
     Pseudo is Ultrasoft + core correction, Zval =  4.0
     Generated by new atomic code, or converted to UPF format
     Using radial grid of  721 points,  4 beta functions with: 
                l(1) =   0
                l(2) =   0
                l(3) =   1
                l(4) =   1
     Q(r) pseudized with  8 coefficients,  rinner =    1.100   1.100   1.100


     PseudoPot. # 2 for F  read from file:
     ../pseudo/f_pbe_v1.4.uspp.F.UPF
     MD5 check sum: 4c38b6a325caf53ec0e86aed9459de46
     Pseudo is Ultrasoft, Zval =  7.0
     Generated by new atomic code, or converted to UPF format
     Using radial grid of  799 points,  4 beta functions with: 
                l(1) =   0
                l(2) =   0
                l(3) =   1
                l(4) =   1
     Q(r) pseudized with  8 coefficients,  rinner =    0.950   0.950   0.950


     atomic species   valence    mass     pseudopotential
        C              4.00    12.01070     C ( 1.00)
        F              7.00    18.99840     F ( 1.00)

      8 Sym. Ops., with inversion, found ( 4 have fractional translation)



   Cartesian axes

     site n.     atom                  positions (alat units)
         1           C   tau(   1) = (   0.5000000   0.2256478   0.1937169  )
         2           C   tau(   2) = (   0.0000000   1.0227422  -0.1937169  )
         3           C   tau(   3) = (   0.0000000   0.5714467   0.1937169  )
         4           C   tau(   4) = (   0.5000000   1.3685411  -0.1937169  )
         5           F   tau(   5) = (   0.5000000  -0.0095812  -0.6719762  )
         6           F   tau(   6) = (   0.0000000   0.7875132   0.6719762  )
         7           F   tau(   7) = (   0.0000000   0.8066757  -0.6719762  )
         8           F   tau(   8) = (   0.5000000   0.0095812   0.6719762  )

     number of k points=    25  Marzari-Vanderbilt smearing, width (Ry)=  0.0200
                       cart. coord. in units 2pi/alat
        k(    1) = (   0.0000000   0.0000000   0.0000000), wk =   0.0246914
        k(    2) = (   0.0000000   0.0696976   0.0000000), wk =   0.0493827
        k(    3) = (   0.0000000   0.1393952   0.0000000), wk =   0.0493827
        k(    4) = (   0.0000000   0.2090927   0.0000000), wk =   0.0493827
        k(    5) = (   0.0000000   0.2787903   0.0000000), wk =   0.0493827
        k(    6) = (   0.1111111   0.0000000   0.0000000), wk =   0.0493827
        k(    7) = (   0.1111111   0.0696976   0.0000000), wk =   0.0987654
        k(    8) = (   0.1111111   0.1393952   0.0000000), wk =   0.0987654
        k(    9) = (   0.1111111   0.2090927   0.0000000), wk =   0.0987654
        k(   10) = (   0.1111111   0.2787903   0.0000000), wk =   0.0987654
        k(   11) = (   0.2222222   0.0000000   0.0000000), wk =   0.0493827
        k(   12) = (   0.2222222   0.0696976   0.0000000), wk =   0.0987654
        k(   13) = (   0.2222222   0.1393952   0.0000000), wk =   0.0987654
        k(   14) = (   0.2222222   0.2090927   0.0000000), wk =   0.0987654
        k(   15) = (   0.2222222   0.2787903   0.0000000), wk =   0.0987654
        k(   16) = (   0.3333333   0.0000000   0.0000000), wk =   0.0493827
        k(   17) = (   0.3333333   0.0696976   0.0000000), wk =   0.0987654
        k(   18) = (   0.3333333   0.1393952   0.0000000), wk =   0.0987654
        k(   19) = (   0.3333333   0.2090927   0.0000000), wk =   0.0987654
        k(   20) = (   0.3333333   0.2787903   0.0000000), wk =   0.0987654
        k(   21) = (   0.4444444   0.0000000   0.0000000), wk =   0.0493827
        k(   22) = (   0.4444444   0.0696976   0.0000000), wk =   0.0987654
        k(   23) = (   0.4444444   0.1393952   0.0000000), wk =   0.0987654
        k(   24) = (   0.4444444   0.2090927   0.0000000), wk =   0.0987654
        k(   25) = (   0.4444444   0.2787903   0.0000000), wk =   0.0987654

     Dense  grid:  4632193 G-vectors     FFT dimensions: ( 108, 160, 576)

     Estimated max dynamical RAM per process >     177.58 MB

     Estimated total dynamical RAM >      13.01 GB

     Initial potential from superposition of free atoms

     starting charge      43.9998, renormalised to      44.0000

     negative rho (up, down):  5.347E-03 0.000E+00
     Starting wfcs are   32 randomized atomic wfcs

     total cpu time spent up to now is       68.7 secs

     Self-consistent Calculation

     iteration #  1     ecut=  1000.00 Ry     beta= 0.70
     Davidson diagonalization with overlap
     ethr =  1.00E-02,  avg # of iterations =  6.1

     negative rho (up, down):  1.355E-03 0.000E+00

     total cpu time spent up to now is      510.9 secs

     total energy              =    -240.07822439 Ry
     estimated scf accuracy    <       0.44298681 Ry

     iteration #  2     ecut=  1000.00 Ry     beta= 0.70
     Davidson diagonalization with overlap
     ethr =  1.01E-03,  avg # of iterations =  5.1

     negative rho (up, down):  8.420E-04 0.000E+00

     total cpu time spent up to now is      892.4 secs

     total energy              =    -240.11324204 Ry
     estimated scf accuracy    <       0.44989963 Ry

     iteration #  3     ecut=  1000.00 Ry     beta= 0.70
     Davidson diagonalization with overlap
     ethr =  1.01E-03,  avg # of iterations =  2.2

     negative rho (up, down):  1.396E-04 0.000E+00

     total cpu time spent up to now is     1117.9 secs

     total energy              =    -240.24386723 Ry
     estimated scf accuracy    <       0.01942857 Ry

     iteration #  4     ecut=  1000.00 Ry     beta= 0.70
     Davidson diagonalization with overlap
     ethr =  4.42E-05,  avg # of iterations =  5.2

     negative rho (up, down):  3.217E-05 0.000E+00

     total cpu time spent up to now is     1490.6 secs

     total energy              =    -240.24707812 Ry
     estimated scf accuracy    <       0.00172465 Ry

     iteration #  5     ecut=  1000.00 Ry     beta= 0.70
     Davidson diagonalization with overlap
     ethr =  3.92E-06,  avg # of iterations =  4.8

     negative rho (up, down):  1.643E-06 0.000E+00

     total cpu time spent up to now is     1866.7 secs

     total energy              =    -240.24745526 Ry
     estimated scf accuracy    <       0.00003102 Ry

     iteration #  6     ecut=  1000.00 Ry     beta= 0.70
     Davidson diagonalization with overlap
     ethr =  7.05E-08,  avg # of iterations =  4.0

     negative rho (up, down):  8.443E-07 0.000E+00

     total cpu time spent up to now is     2192.5 secs

     total energy              =    -240.24746922 Ry
     estimated scf accuracy    <       0.00001891 Ry

     iteration #  7     ecut=  1000.00 Ry     beta= 0.70
     Davidson diagonalization with overlap
     ethr =  4.30E-08,  avg # of iterations =  2.0

     negative rho (up, down):  6.246E-07 0.000E+00

     total cpu time spent up to now is     2391.2 secs

     total energy              =    -240.24747086 Ry
     estimated scf accuracy    <       0.00000110 Ry

     iteration #  8     ecut=  1000.00 Ry     beta= 0.70
     Davidson diagonalization with overlap
     ethr =  2.50E-09,  avg # of iterations =  3.2

     negative rho (up, down):  6.174E-07 0.000E+00

     total cpu time spent up to now is     2674.2 secs

     total energy              =    -240.24747131 Ry
     estimated scf accuracy    <       0.00000022 Ry

     iteration #  9     ecut=  1000.00 Ry     beta= 0.70
     Davidson diagonalization with overlap
     ethr =  4.90E-10,  avg # of iterations =  2.0

     negative rho (up, down):  6.437E-07 0.000E+00

     total cpu time spent up to now is     2886.4 secs

     End of self-consistent calculation

          k = 0.0000 0.0000 0.0000 (578765 PWs)   bands (ev):

   -28.1834 -27.9022 -26.6495 -26.5319 -18.8097 -15.5401 -13.5842 -11.1232
   -10.3489  -9.9809  -8.6995  -8.2805  -7.6842  -7.5567  -7.3229  -5.4480
    -5.3045  -5.2489  -4.5965  -4.2727  -4.0437  -2.7239   0.8196   3.2720
     3.3855   4.4164

          k = 0.0000 0.0697 0.0000 (578875 PWs)   bands (ev):

   -28.1535 -27.8805 -26.6851 -26.5656 -18.7489 -15.7620 -13.3992 -11.0867
   -10.2359 -10.0143  -8.6504  -8.2937  -7.7774  -7.4624  -7.3375  -5.4950
    -5.3766  -5.3393  -4.6556  -4.2413  -4.0042  -2.7760   0.9618   3.2976
     3.3799   4.6003

          k = 0.0000 0.1394 0.0000 (578866 PWs)   bands (ev):

   -28.0685 -27.8231 -26.7795 -26.6586 -18.5683 -16.2586 -12.9912 -11.0546
   -10.0359  -9.9385  -8.5079  -8.3458  -8.0327  -7.3955  -7.2107  -5.6581
    -5.6040  -5.4308  -4.7835  -4.2399  -3.8948  -2.9159   1.3475   3.3475
     3.3737   5.1159

          k = 0.0000 0.2091 0.0000 (578896 PWs)   bands (ev):

   -27.9447 -27.7579 -26.8919 -26.7860 -18.2732 -16.8305 -12.5129 -11.2093
    -9.8638  -9.5572  -8.4677  -8.4105  -8.2876  -7.5279  -6.8619  -5.9607
    -5.6996  -5.5492  -4.8692  -4.3656  -3.7334  -3.1088   1.8842   3.2350
     3.4992   4.3677

          k = 0.0000 0.2788 0.0000 (579060 PWs)   bands (ev):

   -27.8161 -27.7412 -26.9515 -26.9046 -17.8733 -17.3839 -12.0237 -11.5667
    -9.5039  -9.2692  -8.7696  -8.6741  -8.0187  -7.7470  -6.5172  -6.2335
    -5.7196  -5.6586  -4.8088  -4.5978  -3.5376  -3.3235   2.4629   2.9512
     3.6832   3.9647

          k = 0.1111 0.0000 0.0000 (578982 PWs)   bands (ev):

   -28.0993 -27.8281 -26.6475 -26.5320 -18.6560 -15.3907 -13.5223 -10.9998
   -10.2737 -10.0028  -9.3979  -8.3832  -7.7870  -7.6322  -7.4610  -5.7737
    -5.5924  -5.3187  -4.6937  -4.3840  -4.1912  -3.2725   1.0600   4.0620
     4.1787   4.3919

          k = 0.1111 0.0697 0.0000 (578936 PWs)   bands (ev):

   -28.0706 -27.8074 -26.6807 -26.5636 -18.5957 -15.6175 -13.3351 -10.9754
   -10.1819 -10.0374  -9.3378  -8.4122  -7.8019  -7.7278  -7.3694  -5.8379
    -5.6205  -5.3260  -4.7101  -4.3603  -4.2081  -3.3345   1.1842   4.1710
     4.2298   4.4091

          k = 0.1111 0.1394 0.0000 (578985 PWs)   bands (ev):

   -27.9892 -27.7527 -26.7686 -26.6507 -18.4168 -16.1186 -12.9308 -10.9774
   -10.0644  -9.9566  -9.1583  -8.5071  -7.9702  -7.8472  -7.1311  -5.9310
    -5.6812  -5.4357  -4.7753  -4.2770  -4.2685  -3.4751   1.5309   4.1082
     4.4565   4.6239

          k = 0.1111 0.2091 0.0000 (579061 PWs)   bands (ev):

   -27.8706 -27.6906 -26.8733 -26.7706 -18.1243 -16.6905 -12.4646 -11.1665
    -9.9235  -9.7036  -8.9171  -8.6697  -8.2571  -7.9318  -6.7988  -5.9730
    -5.7352  -5.6712  -4.8508  -4.4408  -4.1165  -3.6220   2.0405   3.8335
     4.5216   4.7151

          k = 0.1111 0.2788 0.0000 (579101 PWs)   bands (ev):

   -27.7474 -27.6753 -26.9281 -26.8827 -17.7275 -17.2414 -11.9881 -11.5358
    -9.6575  -9.5394  -8.8749  -8.8462  -8.2816  -8.0814  -6.4431  -6.1186
    -5.8116  -5.7771  -4.8344  -4.6684  -3.9399  -3.7706   2.6475   3.2844
     4.5857   4.6402

          k = 0.2222 0.0000 0.0000 (579068 PWs)   bands (ev):

   -27.8653 -27.6224 -26.6594 -26.5476 -18.1983 -14.9498 -13.4534 -10.7345
   -10.6579 -10.1878 -10.0749  -8.7789  -8.7616  -7.7478  -7.2012  -6.2214
    -6.2161  -5.6456  -5.2523  -4.6727  -4.2690  -4.2415   1.6435   3.8188
     5.5378   6.0177

          k = 0.2222 0.0697 0.0000 (579109 PWs)   bands (ev):

   -27.8405 -27.6048 -26.6855 -26.5730 -18.1399 -15.1931 -13.2672 -10.7187
   -10.6831 -10.2425  -9.9396  -8.9562  -8.5980  -7.8533  -7.1482  -6.2334
    -6.2028  -5.5605  -5.1965  -4.6693  -4.4079  -4.2378   1.7333   3.9780
     5.5091   6.0421

          k = 0.2222 0.1394 0.0000 (579170 PWs)   bands (ev):

   -27.7700 -27.5583 -26.7547 -26.6434 -17.9661 -15.7066 -12.8968 -10.8389
   -10.6534 -10.3131  -9.6128  -9.1220  -8.4600  -8.1050  -6.9932  -6.2130
    -6.1695  -5.4581  -5.0760  -4.6570  -4.6524  -4.3039   1.9995   4.3739
     5.3213   5.9285

          k = 0.2222 0.2091 0.0000 (579096 PWs)   bands (ev):

   -27.6675 -27.5067 -26.8366 -26.7413 -17.6817 -16.2768 -12.4890 -11.1846
   -10.5384 -10.3095  -9.2782  -9.2297  -8.3732  -8.3553  -6.7452  -6.1438
    -6.1149  -5.5921  -5.0057  -4.8669  -4.5824  -4.3605   2.4320   4.3749
     5.3013   5.9335

          k = 0.2222 0.2788 0.0000 (579131 PWs)   bands (ev):

   -27.5608 -27.4965 -26.8765 -26.8350 -17.2949 -16.8193 -12.0617 -11.6175
   -10.4095 -10.3222  -9.2352  -9.1718  -8.4199  -8.3642  -6.4177  -6.1308
    -6.0407  -5.9104  -5.0140  -4.9863  -4.4676  -4.3917   3.0111   3.6997
     5.7566   6.0251

          k = 0.3333 0.0000 0.0000 (579120 PWs)   bands (ev):

   -27.5349 -27.3323 -26.7300 -26.6165 -17.4469 -14.2395 -13.9474 -11.4990
   -10.9806 -10.2687  -9.8298  -9.3684  -9.3493  -8.0925  -7.0381  -6.5413
    -6.3830  -6.2864  -5.8601  -4.9902  -4.8382  -4.5842   2.3900   4.0393
     5.5442   6.9372

          k = 0.3333 0.0697 0.0000 (579140 PWs)   bands (ev):

   -27.5167 -27.3201 -26.7453 -26.6325 -17.3917 -14.5517 -13.7583 -11.3969
   -11.1609 -10.2992  -9.7618  -9.5417  -9.0660  -8.1950  -6.9618  -6.5905
    -6.3904  -6.1508  -5.7384  -5.1422  -4.8081  -4.5391   2.4519   4.1385
     5.4964   6.7876

          k = 0.3333 0.1394 0.0000 (579202 PWs)   bands (ev):

   -27.4653 -27.2889 -26.7854 -26.6775 -17.2274 -15.0670 -13.5218 -11.5743
   -11.1758 -10.3953  -9.6163  -9.6154  -8.7566  -8.3652  -6.8371  -6.6007
    -6.3600  -5.8797  -5.5119  -5.4172  -4.7340  -4.5368   2.6465   4.3936
     5.3285   6.2917

          k = 0.3333 0.2091 0.0000 (579224 PWs)   bands (ev):

   -27.3907 -27.2571 -26.8306 -26.7418 -16.9578 -15.6168 -13.2550 -12.0567
   -10.9529 -10.5120  -9.6464  -9.5478  -8.5115  -8.4124  -6.7655  -6.4288
    -6.3773  -5.6600  -5.5963  -5.3482  -4.6559  -4.5998   2.9925   4.5318
     5.1443   5.8794

          k = 0.3333 0.2788 0.0000 (579148 PWs)   bands (ev):

   -27.3116 -27.2586 -26.8447 -26.8073 -16.5902 -16.1364 -12.9242 -12.5203
   -10.7706 -10.6301  -9.6438  -9.5946  -8.3760  -8.3628  -6.6616  -6.5075
    -6.1472  -5.8639  -5.4136  -5.3202  -4.6262  -4.6188   3.4919   4.0860
     5.3206   5.5706

          k = 0.4444 0.0000 0.0000 (579250 PWs)   bands (ev):

   -27.1873 -27.0266 -26.9034 -26.7746 -16.4204 -15.1722 -13.2952 -12.1685
   -11.2401 -10.6112  -9.6359  -9.5140  -9.2042  -8.6156  -7.1616  -6.8997
    -6.3602  -6.2214  -6.1202  -5.5730  -4.9440  -4.8758   3.2728   4.3493
     4.7535   5.8827

          k = 0.4444 0.0697 0.0000 (579252 PWs)   bands (ev):

   -27.1789 -27.0236 -26.9051 -26.7797 -16.3707 -15.1393 -13.4906 -12.3771
   -11.1121 -10.5328  -9.6752  -9.6557  -9.0105  -8.6232  -7.0391  -6.7813
    -6.4609  -6.4014  -5.8965  -5.6285  -4.8866  -4.7998   3.3169   4.3717
     4.7517   5.7338

          k = 0.4444 0.1394 0.0000 (579247 PWs)   bands (ev):

   -27.1555 -27.0190 -26.9066 -26.7947 -16.2231 -15.0593 -13.9004 -12.8349
   -10.8815 -10.4465  -9.8642  -9.7407  -8.7137  -8.5586  -6.7860  -6.6670
    -6.5681  -6.4481  -5.6797  -5.6624  -4.7655  -4.6987   3.4582   4.4245
     4.7798   5.4573

          k = 0.4444 0.2091 0.0000 (579232 PWs)   bands (ev):

   -27.1214 -27.0248 -26.8985 -26.8180 -15.9823 -15.0470 -14.2129 -13.3416
   -10.7074 -10.4675  -9.9582  -9.8665  -8.4594  -8.4101  -6.8921  -6.7453
    -6.3590  -6.0783  -5.6421  -5.5431  -4.6784  -4.6757   3.7035   4.3998
     4.9439   5.2476

          k = 0.4444 0.2788 0.0000 (579205 PWs)   bands (ev):

   -27.0829 -27.0479 -26.8764 -26.8470 -15.6611 -15.2997 -14.1385 -13.7992
   -10.6066 -10.5363  -9.9819  -9.9554  -8.3136  -8.3019  -6.9490  -6.8944
    -5.9927  -5.7775  -5.6818  -5.5432  -4.6857  -4.6687   4.0053   4.2552
     5.1341   5.1744

     the Fermi energy is    -0.4824 ev

!    total energy              =    -240.24747135 Ry
     estimated scf accuracy    <          3.5E-10 Ry
     smearing contrib. (-TS)   =      -0.00000000 Ry
     internal energy E=F+TS    =    -240.24747135 Ry

     The total energy is F=E-TS. E is the sum of the following terms:
     one-electron contribution =   -1256.48175540 Ry
     hartree contribution      =     642.01095171 Ry
     xc contribution           =     -51.69334037 Ry
     ewald contribution        =     425.91667271 Ry

     convergence has been achieved in   9 iterations

     negative rho (up, down):  6.437E-07 0.000E+00

     Forces acting on atoms (cartesian axes, Ry/au):

     atom    1 type  1   force =     0.00000000   -0.00003877   -0.00000466
     atom    2 type  1   force =     0.00000000   -0.00003877    0.00000466
     atom    3 type  1   force =     0.00000000    0.00003877   -0.00000466
     atom    4 type  1   force =     0.00000000    0.00003877    0.00000466
     atom    5 type  2   force =     0.00000000   -0.00002799   -0.00003157
     atom    6 type  2   force =     0.00000000   -0.00002799    0.00003157
     atom    7 type  2   force =     0.00000000    0.00002799   -0.00003157
     atom    8 type  2   force =     0.00000000    0.00002799    0.00003157

     Total force =     0.000115     Total SCF correction =     0.000043
     SCF correction compared to forces is large: reduce conv_thr to get better values


     Computing stress (Cartesian axis) and pressure


     negative rho (up, down):  6.437E-07 0.000E+00
          total   stress  (Ry/bohr**3)                   (kbar)     P=       -0.00
  -0.00000027   0.00000000   0.00000000           -0.04        0.00        0.00
   0.00000000   0.00000004   0.00000000            0.00        0.01        0.00
   0.00000000   0.00000000   0.00000016            0.00        0.00        0.02


     Writing all to output data dir ../tmp/fgz.save/

     init_run     :     40.68s CPU     68.18s WALL (       1 calls)
     electrons    :   1590.87s CPU   2818.47s WALL (       1 calls)
     forces       :     34.24s CPU     65.12s WALL (       1 calls)
     stress       :     26.35s CPU     55.43s WALL (       1 calls)

     Called by init_run:
     wfcinit      :     37.02s CPU     64.16s WALL (       1 calls)
     potinit      :      0.42s CPU      0.44s WALL (       1 calls)
     hinit0       :      0.89s CPU      0.90s WALL (       1 calls)

     Called by electrons:
     c_bands      :   1526.85s CPU   2684.52s WALL (       9 calls)
     sum_band     :     59.51s CPU    125.41s WALL (       9 calls)
     v_of_rho     :      0.85s CPU      0.93s WALL (      10 calls)
     newd         :      3.26s CPU      6.77s WALL (      10 calls)
     mix_rho      :      0.33s CPU      0.44s WALL (       9 calls)

     Called by c_bands:
     init_us_2    :      1.25s CPU      2.06s WALL (     525 calls)
     init_us_2:cp :      1.24s CPU      2.06s WALL (     525 calls)
     cegterg      :   1466.87s CPU   2570.71s WALL (     225 calls)

     Called by *egterg:
     cdiaghg      :    148.50s CPU    112.70s WALL (    1088 calls)
     h_psi        :    391.68s CPU    885.29s WALL (    1113 calls)
     s_psi        :     17.95s CPU     43.07s WALL (    1113 calls)
     g_psi        :      0.52s CPU      0.39s WALL (     863 calls)

     Called by h_psi:
     h_psi:calbec :    208.04s CPU    516.65s WALL (    1113 calls)
     vloc_psi     :    110.79s CPU    132.18s WALL (    1113 calls)
     add_vuspsi   :     72.47s CPU    235.70s WALL (    1113 calls)

     General routines
     calbec       :    297.13s CPU    700.97s WALL (    1463 calls)
     fft          :      1.16s CPU      1.29s WALL (     135 calls)
     ffts         :      0.03s CPU      0.04s WALL (       9 calls)
     fftw         :    117.62s CPU    138.10s WALL (   39606 calls)

     Parallel routines

     PWSCF        :  28m14.75s CPU  50m33.80s WALL


   This run was terminated on:  22:15:51  19Jan2024            

=------------------------------------------------------------------------------=
   JOB DONE.
=------------------------------------------------------------------------------=
