
     Program PWSCF v.7.1 starts on 19Jan2024 at 14:57: 3 

     This program is part of the open-source Quantum ESPRESSO suite
     for quantum simulation of materials; please cite
         "P. Giannozzi et al., J. Phys.:Condens. Matter 21 395502 (2009);
         "P. Giannozzi et al., J. Phys.:Condens. Matter 29 465901 (2017);
         "P. Giannozzi et al., J. Chem. Phys. 152 154105 (2020);
          URL http://www.quantum-espresso.org", 
     in publications or presentations arising from this work. More details at
     http://www.quantum-espresso.org/quote

     Parallel version (MPI), running on    75 processors

     MPI processes distributed on     1 nodes
     351339 MiB available memory on the printing compute node when the environment starts

     Reading input from ecut.100.in

     Current dimensions of program PWSCF are:
     Max number of different atomic species (ntypx) = 10
     Max number of k-points (npk) =  40000
     Max angular momentum in pseudopotentials (lmaxx) =  4
     Message from routine setup:
     using ibrav=0 with symmetry is DISCOURAGED, use correct ibrav instead

     R & G space division:  proc/nbgrp/npool/nimage =      75
     Subspace diagonalization in iterative solution of the eigenvalue problem:
     a serial algorithm will be used


     Parallelization info
     --------------------
     sticks:   dense  smooth     PW     G-vecs:    dense   smooth      PW
     Min          16      16      4                 1938     1938     280
     Max          17      17      5                 1969     1969     309
     Sum        1253    1253    359               146455   146455   22283

     Using Slab Decomposition



     bravais-lattice index     =            0
     lattice parameter (alat)  =       4.9702  a.u.
     unit-cell volume          =    1084.4437 (a.u.)^3
     number of atoms/cell      =            8
     number of atomic types    =            2
     number of electrons       =        44.00
     number of Kohn-Sham states=           26
     kinetic-energy cutoff     =     100.0000  Ry
     charge density cutoff     =     400.0000  Ry
     scf convergence threshold =      1.0E-08
     mixing beta               =       0.7000
     number of iterations used =            8  plain     mixing
     Exchange-correlation=  SLA  PW   PBX  PBC
                           (   1   4   3   4   0   0   0)

     celldm(1)=   4.970237  celldm(2)=   0.000000  celldm(3)=   0.000000
     celldm(4)=   0.000000  celldm(5)=   0.000000  celldm(6)=   0.000000

     crystal axes: (cart. coord. in units of alat)
               a(1) = (   1.000000   0.000000   0.000000 )  
               a(2) = (   0.000000   1.594189   0.000000 )  
               a(3) = (   0.000000   0.000000   5.540333 )  

     reciprocal axes: (cart. coord. in units 2 pi/alat)
               b(1) = (  1.000000  0.000000  0.000000 )  
               b(2) = (  0.000000  0.627278  0.000000 )  
               b(3) = (  0.000000  0.000000  0.180495 )  


     PseudoPot. # 1 for C  read from file:
     ../pseudo/c_pbe_v1.2.uspp.F.UPF
     MD5 check sum: d1aef80898a10debaa0f26306b886e00
     Pseudo is Ultrasoft + core correction, Zval =  4.0
     Generated by new atomic code, or converted to UPF format
     Using radial grid of  721 points,  4 beta functions with: 
                l(1) =   0
                l(2) =   0
                l(3) =   1
                l(4) =   1
     Q(r) pseudized with  8 coefficients,  rinner =    1.100   1.100   1.100


     PseudoPot. # 2 for F  read from file:
     ../pseudo/f_pbe_v1.4.uspp.F.UPF
     MD5 check sum: 4c38b6a325caf53ec0e86aed9459de46
     Pseudo is Ultrasoft, Zval =  7.0
     Generated by new atomic code, or converted to UPF format
     Using radial grid of  799 points,  4 beta functions with: 
                l(1) =   0
                l(2) =   0
                l(3) =   1
                l(4) =   1
     Q(r) pseudized with  8 coefficients,  rinner =    0.950   0.950   0.950


     atomic species   valence    mass     pseudopotential
        C              4.00    12.01070     C ( 1.00)
        F              7.00    18.99840     F ( 1.00)

      8 Sym. Ops., with inversion, found ( 4 have fractional translation)



   Cartesian axes

     site n.     atom                  positions (alat units)
         1           C   tau(   1) = (   0.5000000   0.2256478   0.1937169  )
         2           C   tau(   2) = (   0.0000000   1.0227422  -0.1937169  )
         3           C   tau(   3) = (   0.0000000   0.5714467   0.1937169  )
         4           C   tau(   4) = (   0.5000000   1.3685411  -0.1937169  )
         5           F   tau(   5) = (   0.5000000  -0.0095812  -0.6719762  )
         6           F   tau(   6) = (   0.0000000   0.7875132   0.6719762  )
         7           F   tau(   7) = (   0.0000000   0.8066757  -0.6719762  )
         8           F   tau(   8) = (   0.5000000   0.0095812   0.6719762  )

     number of k points=    25  Marzari-Vanderbilt smearing, width (Ry)=  0.0200
                       cart. coord. in units 2pi/alat
        k(    1) = (   0.0000000   0.0000000   0.0000000), wk =   0.0246914
        k(    2) = (   0.0000000   0.0696976   0.0000000), wk =   0.0493827
        k(    3) = (   0.0000000   0.1393952   0.0000000), wk =   0.0493827
        k(    4) = (   0.0000000   0.2090927   0.0000000), wk =   0.0493827
        k(    5) = (   0.0000000   0.2787903   0.0000000), wk =   0.0493827
        k(    6) = (   0.1111111   0.0000000   0.0000000), wk =   0.0493827
        k(    7) = (   0.1111111   0.0696976   0.0000000), wk =   0.0987654
        k(    8) = (   0.1111111   0.1393952   0.0000000), wk =   0.0987654
        k(    9) = (   0.1111111   0.2090927   0.0000000), wk =   0.0987654
        k(   10) = (   0.1111111   0.2787903   0.0000000), wk =   0.0987654
        k(   11) = (   0.2222222   0.0000000   0.0000000), wk =   0.0493827
        k(   12) = (   0.2222222   0.0696976   0.0000000), wk =   0.0987654
        k(   13) = (   0.2222222   0.1393952   0.0000000), wk =   0.0987654
        k(   14) = (   0.2222222   0.2090927   0.0000000), wk =   0.0987654
        k(   15) = (   0.2222222   0.2787903   0.0000000), wk =   0.0987654
        k(   16) = (   0.3333333   0.0000000   0.0000000), wk =   0.0493827
        k(   17) = (   0.3333333   0.0696976   0.0000000), wk =   0.0987654
        k(   18) = (   0.3333333   0.1393952   0.0000000), wk =   0.0987654
        k(   19) = (   0.3333333   0.2090927   0.0000000), wk =   0.0987654
        k(   20) = (   0.3333333   0.2787903   0.0000000), wk =   0.0987654
        k(   21) = (   0.4444444   0.0000000   0.0000000), wk =   0.0493827
        k(   22) = (   0.4444444   0.0696976   0.0000000), wk =   0.0987654
        k(   23) = (   0.4444444   0.1393952   0.0000000), wk =   0.0987654
        k(   24) = (   0.4444444   0.2090927   0.0000000), wk =   0.0987654
        k(   25) = (   0.4444444   0.2787903   0.0000000), wk =   0.0987654

     Dense  grid:   146455 G-vectors     FFT dimensions: (  32,  54, 180)

     Estimated max dynamical RAM per process >       6.51 MB

     Estimated total dynamical RAM >     488.47 MB

     Initial potential from superposition of free atoms

     starting charge      43.9998, renormalised to      44.0000

     negative rho (up, down):  1.758E-05 0.000E+00
     Starting wfcs are   32 randomized atomic wfcs

     total cpu time spent up to now is       58.8 secs

     Self-consistent Calculation

     iteration #  1     ecut=   100.00 Ry     beta= 0.70
     Davidson diagonalization with overlap
     ethr =  1.00E-02,  avg # of iterations =  2.3

     Threshold (ethr) on eigenvalues was too large:
     Diagonalizing with lowered threshold

     Davidson diagonalization with overlap
     ethr =  9.78E-04,  avg # of iterations =  1.0

     negative rho (up, down):  1.669E-04 0.000E+00

     total cpu time spent up to now is      402.9 secs

     total energy              =    -240.14158791 Ry
     estimated scf accuracy    <       0.41900263 Ry

     iteration #  2     ecut=   100.00 Ry     beta= 0.70
     Davidson diagonalization with overlap
     ethr =  9.52E-04,  avg # of iterations =  3.0

     negative rho (up, down):  2.160E-04 0.000E+00

     total cpu time spent up to now is      627.4 secs

     total energy              =    -240.15854714 Ry
     estimated scf accuracy    <       0.29681219 Ry

     iteration #  3     ecut=   100.00 Ry     beta= 0.70
     Davidson diagonalization with overlap
     ethr =  6.75E-04,  avg # of iterations =  2.4

     negative rho (up, down):  2.612E-04 0.000E+00

     total cpu time spent up to now is      831.3 secs

     total energy              =    -240.23923470 Ry
     estimated scf accuracy    <       0.03042003 Ry

     iteration #  4     ecut=   100.00 Ry     beta= 0.70
     Davidson diagonalization with overlap
     ethr =  6.91E-05,  avg # of iterations =  2.4

     negative rho (up, down):  2.754E-04 0.000E+00

     total cpu time spent up to now is     1017.3 secs

     total energy              =    -240.24327364 Ry
     estimated scf accuracy    <       0.00085199 Ry

     iteration #  5     ecut=   100.00 Ry     beta= 0.70
     Davidson diagonalization with overlap
     ethr =  1.94E-06,  avg # of iterations =  6.9

     negative rho (up, down):  2.793E-04 0.000E+00

     total cpu time spent up to now is     1362.1 secs

     total energy              =    -240.24355845 Ry
     estimated scf accuracy    <       0.00004301 Ry

     iteration #  6     ecut=   100.00 Ry     beta= 0.70
     Davidson diagonalization with overlap
     ethr =  9.78E-08,  avg # of iterations =  2.0

     negative rho (up, down):  2.796E-04 0.000E+00

     total cpu time spent up to now is     1555.8 secs

     total energy              =    -240.24356325 Ry
     estimated scf accuracy    <       0.00000292 Ry

     iteration #  7     ecut=   100.00 Ry     beta= 0.70
     Davidson diagonalization with overlap
     ethr =  6.63E-09,  avg # of iterations =  3.0

     negative rho (up, down):  2.796E-04 0.000E+00

     total cpu time spent up to now is     1788.6 secs

     total energy              =    -240.24356437 Ry
     estimated scf accuracy    <       0.00000062 Ry

     iteration #  8     ecut=   100.00 Ry     beta= 0.70
     Davidson diagonalization with overlap
     ethr =  1.40E-09,  avg # of iterations =  2.5

     negative rho (up, down):  2.796E-04 0.000E+00

     total cpu time spent up to now is     1995.6 secs

     End of self-consistent calculation

          k = 0.0000 0.0000 0.0000 ( 18261 PWs)   bands (ev):

   -28.1840 -27.9026 -26.6497 -26.5320 -18.8120 -15.5421 -13.5854 -11.1228
   -10.3483  -9.9805  -8.6987  -8.2798  -7.6832  -7.5565  -7.3221  -5.4474
    -5.3039  -5.2483  -4.5960  -4.2711  -4.0425  -2.7218   0.8200   3.2715
     3.3878   4.4201

          k = 0.0000 0.0697 0.0000 ( 18287 PWs)   bands (ev):

   -28.1541 -27.8809 -26.6854 -26.5658 -18.7513 -15.7641 -13.4003 -11.0863
   -10.2353 -10.0139  -8.6496  -8.2930  -7.7764  -7.4623  -7.3368  -5.4944
    -5.3760  -5.3387  -4.6552  -4.2397  -4.0030  -2.7740   0.9622   3.2973
     3.3822   4.6041

          k = 0.0000 0.1394 0.0000 ( 18267 PWs)   bands (ev):

   -28.0691 -27.8235 -26.7798 -26.6588 -18.5706 -16.2608 -12.9920 -11.0543
   -10.0355  -9.9379  -8.5071  -8.3451  -8.0318  -7.3946  -7.2104  -5.6576
    -5.6034  -5.4302  -4.7831  -4.2384  -3.8935  -2.9140   1.3480   3.3494
     3.3737   4.6857

          k = 0.0000 0.2091 0.0000 ( 18251 PWs)   bands (ev):

   -27.9453 -27.7583 -26.8922 -26.7862 -18.2756 -16.8327 -12.5135 -11.2092
    -9.8632  -9.5566  -8.4670  -8.4096  -8.2867  -7.5271  -6.8616  -5.9602
    -5.6990  -5.5486  -4.8687  -4.3644  -3.7320  -3.1071   1.8847   3.2362
     3.4999   4.3670

          k = 0.0000 0.2788 0.0000 ( 18294 PWs)   bands (ev):

   -27.8166 -27.7417 -26.9517 -26.9048 -17.8756 -17.3861 -12.0240 -11.5668
    -9.5033  -9.2686  -8.7688  -8.6735  -8.0178  -7.7461  -6.5168  -6.2331
    -5.7190  -5.6580  -4.8082  -4.5968  -3.5362  -3.3220   2.4635   2.9519
     3.6847   3.9666

          k = 0.1111 0.0000 0.0000 ( 18266 PWs)   bands (ev):

   -28.0999 -27.8285 -26.6477 -26.5322 -18.6583 -15.3927 -13.5235 -10.9994
   -10.2731 -10.0024  -9.3973  -8.3825  -7.7863  -7.6312  -7.4609  -5.7731
    -5.5919  -5.3181  -4.6931  -4.3831  -4.1896  -3.2710   1.0606   4.0604
     4.1815   4.3924

          k = 0.1111 0.0697 0.0000 ( 18284 PWs)   bands (ev):

   -28.0712 -27.8078 -26.6809 -26.5638 -18.5981 -15.6195 -13.3362 -10.9750
   -10.1813 -10.0371  -9.3372  -8.4115  -7.8012  -7.7269  -7.3692  -5.8373
    -5.6200  -5.3255  -4.7096  -4.3593  -4.2066  -3.3329   1.1847   4.1737
     4.2274   4.4097

          k = 0.1111 0.1394 0.0000 ( 18290 PWs)   bands (ev):

   -27.9898 -27.7530 -26.7689 -26.6509 -18.4191 -16.1207 -12.9317 -10.9771
   -10.0640  -9.9561  -9.1577  -8.5064  -7.9693  -7.8465  -7.1308  -5.9305
    -5.6807  -5.4351  -4.7749  -4.2756  -4.2675  -3.4736   1.5315   4.1104
     4.4574   4.6184

          k = 0.1111 0.2091 0.0000 ( 18291 PWs)   bands (ev):

   -27.8711 -27.6911 -26.8736 -26.7707 -18.1266 -16.6927 -12.4652 -11.1664
    -9.9230  -9.7031  -8.9165  -8.6690  -8.2563  -7.9310  -6.7984  -5.9725
    -5.7346  -5.6707  -4.8503  -4.4397  -4.1155  -3.6206   2.0412   3.8348
     4.5230   4.7149

          k = 0.1111 0.2788 0.0000 ( 18299 PWs)   bands (ev):

   -27.7480 -27.6758 -26.9283 -26.8829 -17.7298 -17.2436 -11.9884 -11.5359
    -9.6570  -9.5388  -8.8742  -8.8455  -8.2808  -8.0806  -6.4427  -6.1181
    -5.8111  -5.7766  -4.8338  -4.6675  -3.9388  -3.7693   2.6483   3.2854
     4.5877   4.6424

          k = 0.2222 0.0000 0.0000 ( 18346 PWs)   bands (ev):

   -27.8659 -27.6228 -26.6596 -26.5478 -18.2006 -14.9517 -13.4548 -10.7343
   -10.6575 -10.1877 -10.0742  -8.7781  -8.7611  -7.7468  -7.2009  -6.2210
    -6.2157  -5.6451  -5.2517  -4.6721  -4.2676  -4.2406   1.6443   3.8192
     5.5410   5.8699

          k = 0.2222 0.0697 0.0000 ( 18325 PWs)   bands (ev):

   -27.8410 -27.6051 -26.6858 -26.5732 -18.1422 -15.1951 -13.2685 -10.7184
   -10.6827 -10.2424  -9.9390  -8.9556  -8.5974  -7.8524  -7.1479  -6.2330
    -6.2024  -5.5599  -5.1959  -4.6686  -4.4070  -4.2364   1.7341   3.9785
     5.5123   5.9243

          k = 0.2222 0.1394 0.0000 ( 18298 PWs)   bands (ev):

   -27.7705 -27.5587 -26.7549 -26.6436 -17.9684 -15.7086 -12.8979 -10.8387
   -10.6531 -10.3129  -9.6122  -9.1213  -8.4593  -8.1041  -6.9929  -6.2126
    -6.1691  -5.4575  -5.0754  -4.6563  -4.6517  -4.3025   2.0005   4.3745
     5.3247   5.9067

          k = 0.2222 0.2091 0.0000 ( 18280 PWs)   bands (ev):

   -27.6680 -27.5071 -26.8368 -26.7415 -17.6839 -16.2789 -12.4899 -11.1848
   -10.5380 -10.3092  -9.2775  -9.2290  -8.3724  -8.3545  -6.7448  -6.1434
    -6.1145  -5.5915  -5.0052  -4.8664  -4.5815  -4.3591   2.4330   4.3764
     5.3033   5.9310

          k = 0.2222 0.2788 0.0000 ( 18299 PWs)   bands (ev):

   -27.5613 -27.4970 -26.8767 -26.8352 -17.2972 -16.8215 -12.0623 -11.6178
   -10.4092 -10.3218  -9.2345  -9.1711  -8.4191  -8.3634  -6.4173  -6.1303
    -6.0403  -5.9098  -5.0136  -4.9858  -4.4665  -4.3905   3.0123   3.7012
     5.7568   6.0249

          k = 0.3333 0.0000 0.0000 ( 18372 PWs)   bands (ev):

   -27.5353 -27.3326 -26.7302 -26.6167 -17.4491 -14.2411 -13.9491 -11.4989
   -10.9810 -10.2683  -9.8291  -9.3677  -9.3486  -8.0916  -7.0377  -6.5412
    -6.3826  -6.2860  -5.8596  -4.9896  -4.8376  -4.5830   2.3912   4.0397
     5.5471   6.9375

          k = 0.3333 0.0697 0.0000 ( 18360 PWs)   bands (ev):

   -27.5172 -27.3204 -26.7455 -26.6327 -17.3939 -14.5535 -13.7599 -11.3967
   -11.1613 -10.2988  -9.7611  -9.5411  -9.0653  -8.1942  -6.9613  -6.5903
    -6.3900  -6.1505  -5.7379  -5.1417  -4.8075  -4.5379   2.4531   4.1388
     5.4992   6.9148

          k = 0.3333 0.1394 0.0000 ( 18317 PWs)   bands (ev):

   -27.4658 -27.2892 -26.7857 -26.6777 -17.2296 -15.0690 -13.5232 -11.5749
   -11.1756 -10.3948  -9.6156  -9.6148  -8.7558  -8.3644  -6.8367  -6.6004
    -6.3595  -5.8792  -5.5113  -5.4167  -4.7333  -4.5355   2.6478   4.3939
     5.3313   6.2902

          k = 0.3333 0.2091 0.0000 ( 18330 PWs)   bands (ev):

   -27.3911 -27.2574 -26.8309 -26.7420 -16.9600 -15.6188 -13.2562 -12.0575
   -10.9526 -10.5116  -9.6457  -9.5471  -8.5107  -8.4116  -6.7652  -6.4284
    -6.3769  -5.6596  -5.5958  -5.3477  -4.6550  -4.5985   2.9939   4.5330
     5.1458   5.8789

          k = 0.3333 0.2788 0.0000 ( 18299 PWs)   bands (ev):

   -27.3120 -27.2590 -26.8449 -26.8075 -16.5923 -16.1385 -12.9253 -12.5212
   -10.7702 -10.6297  -9.6432  -9.5940  -8.3752  -8.3620  -6.6614  -6.5072
    -6.1467  -5.8634  -5.4132  -5.3197  -4.6250  -4.6177   3.4935   4.0879
     5.3205   5.5702

          k = 0.4444 0.0000 0.0000 ( 18378 PWs)   bands (ev):

   -27.1877 -27.0269 -26.9038 -26.7748 -16.4225 -15.1741 -13.2966 -12.1694
   -11.2399 -10.6109  -9.6352  -9.5133  -9.2034  -8.6148  -7.1613  -6.8995
    -6.3597  -6.2209  -6.1199  -5.5726  -4.9433  -4.8749   3.2745   4.3513
     4.7539   5.8833

          k = 0.4444 0.0697 0.0000 ( 18380 PWs)   bands (ev):

   -27.1793 -27.0239 -26.9054 -26.7800 -16.3728 -15.1412 -13.4920 -12.3781
   -11.1119 -10.5325  -9.6745  -9.6550  -9.0097  -8.6224  -7.0389  -6.7810
    -6.4605  -6.4009  -5.8960  -5.6280  -4.8859  -4.7988   3.3186   4.3738
     4.7519   5.7341

          k = 0.4444 0.1394 0.0000 ( 18369 PWs)   bands (ev):

   -27.1559 -27.0193 -26.9069 -26.7949 -16.2252 -15.0613 -13.9017 -12.8359
   -10.8812 -10.4462  -9.8636  -9.7400  -8.7129  -8.5578  -6.7858  -6.6665
    -6.5678  -6.4476  -5.6792  -5.6619  -4.7647  -4.6976   3.4599   4.4267
     4.7796   5.4570

          k = 0.4444 0.2091 0.0000 ( 18320 PWs)   bands (ev):

   -27.1218 -27.0251 -26.8988 -26.8183 -15.9843 -15.0491 -14.2141 -13.3427
   -10.7071 -10.4671  -9.9576  -9.8659  -8.4585  -8.4093  -6.8919  -6.7450
    -6.3585  -6.0778  -5.6416  -5.5426  -4.6774  -4.6745   3.7054   4.4019
     4.9436   5.2469

          k = 0.4444 0.2788 0.0000 ( 18308 PWs)   bands (ev):

   -27.0833 -27.0482 -26.8767 -26.8472 -15.6632 -15.3018 -14.1397 -13.8004
   -10.6062 -10.5360  -9.9813  -9.9548  -8.3127  -8.3011  -6.9488  -6.8942
    -5.9921  -5.7768  -5.6813  -5.5427  -4.6846  -4.6676   4.0074   4.2572
     5.1335   5.1735

     the Fermi energy is    -0.4823 ev

!    total energy              =    -240.24356451 Ry
     estimated scf accuracy    <          2.1E-09 Ry
     smearing contrib. (-TS)   =      -0.00000000 Ry
     internal energy E=F+TS    =    -240.24356451 Ry

     The total energy is F=E-TS. E is the sum of the following terms:
     one-electron contribution =   -1256.47516510 Ry
     hartree contribution      =     642.00759850 Ry
     xc contribution           =     -51.69267061 Ry
     ewald contribution        =     425.91667271 Ry

     convergence has been achieved in   8 iterations

     negative rho (up, down):  2.796E-04 0.000E+00

     Forces acting on atoms (cartesian axes, Ry/au):

     atom    1 type  1   force =     0.00000000   -0.00000848    0.00004970
     atom    2 type  1   force =     0.00000000   -0.00000848   -0.00004970
     atom    3 type  1   force =     0.00000000    0.00000848    0.00004970
     atom    4 type  1   force =     0.00000000    0.00000848   -0.00004970
     atom    5 type  2   force =     0.00000000    0.00004151   -0.00014059
     atom    6 type  2   force =     0.00000000    0.00004151    0.00014059
     atom    7 type  2   force =     0.00000000   -0.00004151   -0.00014059
     atom    8 type  2   force =     0.00000000   -0.00004151    0.00014059

     Total force =     0.000310     Total SCF correction =     0.000236
     SCF correction compared to forces is large: reduce conv_thr to get better values


     Computing stress (Cartesian axis) and pressure


     negative rho (up, down):  2.796E-04 0.000E+00
          total   stress  (Ry/bohr**3)                   (kbar)     P=        0.12
   0.00000055   0.00000000   0.00000000            0.08        0.00        0.00
   0.00000000   0.00000107   0.00000000            0.00        0.16        0.00
   0.00000000   0.00000000   0.00000092            0.00        0.00        0.14


     Writing all to output data dir ../tmp/fgz.save/

     init_run     :     30.06s CPU     58.39s WALL (       1 calls)
     electrons    :   1087.78s CPU   1937.03s WALL (       1 calls)
     forces       :     34.91s CPU     64.17s WALL (       1 calls)
     stress       :      8.52s CPU     16.64s WALL (       1 calls)

     Called by init_run:
     wfcinit      :     29.65s CPU     57.75s WALL (       1 calls)
     potinit      :      0.02s CPU      0.02s WALL (       1 calls)
     hinit0       :      0.24s CPU      0.25s WALL (       1 calls)

     Called by electrons:
     c_bands      :   1043.10s CPU   1830.43s WALL (       9 calls)
     sum_band     :     43.05s CPU    103.78s WALL (       9 calls)
     v_of_rho     :      0.02s CPU      0.03s WALL (       9 calls)
     newd         :      1.32s CPU      2.48s WALL (       9 calls)
     mix_rho      :      0.09s CPU      0.11s WALL (       9 calls)

     Called by c_bands:
     init_us_2    :      0.04s CPU      0.19s WALL (     525 calls)
     init_us_2:cp :      0.04s CPU      0.18s WALL (     525 calls)
     cegterg      :    983.60s CPU   1712.03s WALL (     225 calls)

     Called by *egterg:
     cdiaghg      :    107.86s CPU     80.59s WALL (     837 calls)
     h_psi        :    253.21s CPU    602.82s WALL (     887 calls)
     s_psi        :     13.56s CPU     38.55s WALL (     887 calls)
     g_psi        :      0.01s CPU      0.01s WALL (     637 calls)

     Called by h_psi:
     h_psi:calbec :    168.06s CPU    395.50s WALL (     887 calls)
     vloc_psi     :     41.83s CPU     52.15s WALL (     887 calls)
     add_vuspsi   :     43.31s CPU    154.81s WALL (     887 calls)

     General routines
     calbec       :    250.74s CPU    571.42s WALL (    1237 calls)
     fft          :      0.24s CPU      0.25s WALL (     125 calls)
     ffts         :      0.00s CPU      0.00s WALL (       9 calls)
     fftw         :     43.15s CPU     54.18s WALL (   37672 calls)

     Parallel routines

     PWSCF        :  19m22.32s CPU  34m40.15s WALL


   This run was terminated on:  15:31:43  19Jan2024            

=------------------------------------------------------------------------------=
   JOB DONE.
=------------------------------------------------------------------------------=
