
     Program PWSCF v.7.1 starts on 19Jan2024 at 18: 8:45 

     This program is part of the open-source Quantum ESPRESSO suite
     for quantum simulation of materials; please cite
         "P. Giannozzi et al., J. Phys.:Condens. Matter 21 395502 (2009);
         "P. Giannozzi et al., J. Phys.:Condens. Matter 29 465901 (2017);
         "P. Giannozzi et al., J. Chem. Phys. 152 154105 (2020);
          URL http://www.quantum-espresso.org", 
     in publications or presentations arising from this work. More details at
     http://www.quantum-espresso.org/quote

     Parallel version (MPI), running on    75 processors

     MPI processes distributed on     1 nodes
     349132 MiB available memory on the printing compute node when the environment starts

     Reading input from ecut.600.in

     Current dimensions of program PWSCF are:
     Max number of different atomic species (ntypx) = 10
     Max number of k-points (npk) =  40000
     Max angular momentum in pseudopotentials (lmaxx) =  4
     Message from routine setup:
     using ibrav=0 with symmetry is DISCOURAGED, use correct ibrav instead

     R & G space division:  proc/nbgrp/npool/nimage =      75
     Subspace diagonalization in iterative solution of the eigenvalue problem:
     a serial algorithm will be used


     Parallelization info
     --------------------
     sticks:   dense  smooth     PW     G-vecs:    dense   smooth      PW
     Min         100     100     26                28696    28696    3878
     Max         101     101     27                28720    28720    3901
     Sum        7511    7511   1981              2153235  2153235  291549

     Using Slab Decomposition



     bravais-lattice index     =            0
     lattice parameter (alat)  =       4.9702  a.u.
     unit-cell volume          =    1084.4437 (a.u.)^3
     number of atoms/cell      =            8
     number of atomic types    =            2
     number of electrons       =        44.00
     number of Kohn-Sham states=           26
     kinetic-energy cutoff     =     600.0000  Ry
     charge density cutoff     =    2400.0000  Ry
     scf convergence threshold =      1.0E-08
     mixing beta               =       0.7000
     number of iterations used =            8  plain     mixing
     Exchange-correlation=  SLA  PW   PBX  PBC
                           (   1   4   3   4   0   0   0)

     celldm(1)=   4.970237  celldm(2)=   0.000000  celldm(3)=   0.000000
     celldm(4)=   0.000000  celldm(5)=   0.000000  celldm(6)=   0.000000

     crystal axes: (cart. coord. in units of alat)
               a(1) = (   1.000000   0.000000   0.000000 )  
               a(2) = (   0.000000   1.594189   0.000000 )  
               a(3) = (   0.000000   0.000000   5.540333 )  

     reciprocal axes: (cart. coord. in units 2 pi/alat)
               b(1) = (  1.000000  0.000000  0.000000 )  
               b(2) = (  0.000000  0.627278  0.000000 )  
               b(3) = (  0.000000  0.000000  0.180495 )  


     PseudoPot. # 1 for C  read from file:
     ../pseudo/c_pbe_v1.2.uspp.F.UPF
     MD5 check sum: d1aef80898a10debaa0f26306b886e00
     Pseudo is Ultrasoft + core correction, Zval =  4.0
     Generated by new atomic code, or converted to UPF format
     Using radial grid of  721 points,  4 beta functions with: 
                l(1) =   0
                l(2) =   0
                l(3) =   1
                l(4) =   1
     Q(r) pseudized with  8 coefficients,  rinner =    1.100   1.100   1.100


     PseudoPot. # 2 for F  read from file:
     ../pseudo/f_pbe_v1.4.uspp.F.UPF
     MD5 check sum: 4c38b6a325caf53ec0e86aed9459de46
     Pseudo is Ultrasoft, Zval =  7.0
     Generated by new atomic code, or converted to UPF format
     Using radial grid of  799 points,  4 beta functions with: 
                l(1) =   0
                l(2) =   0
                l(3) =   1
                l(4) =   1
     Q(r) pseudized with  8 coefficients,  rinner =    0.950   0.950   0.950


     atomic species   valence    mass     pseudopotential
        C              4.00    12.01070     C ( 1.00)
        F              7.00    18.99840     F ( 1.00)

      8 Sym. Ops., with inversion, found ( 4 have fractional translation)



   Cartesian axes

     site n.     atom                  positions (alat units)
         1           C   tau(   1) = (   0.5000000   0.2256478   0.1937169  )
         2           C   tau(   2) = (   0.0000000   1.0227422  -0.1937169  )
         3           C   tau(   3) = (   0.0000000   0.5714467   0.1937169  )
         4           C   tau(   4) = (   0.5000000   1.3685411  -0.1937169  )
         5           F   tau(   5) = (   0.5000000  -0.0095812  -0.6719762  )
         6           F   tau(   6) = (   0.0000000   0.7875132   0.6719762  )
         7           F   tau(   7) = (   0.0000000   0.8066757  -0.6719762  )
         8           F   tau(   8) = (   0.5000000   0.0095812   0.6719762  )

     number of k points=    25  Marzari-Vanderbilt smearing, width (Ry)=  0.0200
                       cart. coord. in units 2pi/alat
        k(    1) = (   0.0000000   0.0000000   0.0000000), wk =   0.0246914
        k(    2) = (   0.0000000   0.0696976   0.0000000), wk =   0.0493827
        k(    3) = (   0.0000000   0.1393952   0.0000000), wk =   0.0493827
        k(    4) = (   0.0000000   0.2090927   0.0000000), wk =   0.0493827
        k(    5) = (   0.0000000   0.2787903   0.0000000), wk =   0.0493827
        k(    6) = (   0.1111111   0.0000000   0.0000000), wk =   0.0493827
        k(    7) = (   0.1111111   0.0696976   0.0000000), wk =   0.0987654
        k(    8) = (   0.1111111   0.1393952   0.0000000), wk =   0.0987654
        k(    9) = (   0.1111111   0.2090927   0.0000000), wk =   0.0987654
        k(   10) = (   0.1111111   0.2787903   0.0000000), wk =   0.0987654
        k(   11) = (   0.2222222   0.0000000   0.0000000), wk =   0.0493827
        k(   12) = (   0.2222222   0.0696976   0.0000000), wk =   0.0987654
        k(   13) = (   0.2222222   0.1393952   0.0000000), wk =   0.0987654
        k(   14) = (   0.2222222   0.2090927   0.0000000), wk =   0.0987654
        k(   15) = (   0.2222222   0.2787903   0.0000000), wk =   0.0987654
        k(   16) = (   0.3333333   0.0000000   0.0000000), wk =   0.0493827
        k(   17) = (   0.3333333   0.0696976   0.0000000), wk =   0.0987654
        k(   18) = (   0.3333333   0.1393952   0.0000000), wk =   0.0987654
        k(   19) = (   0.3333333   0.2090927   0.0000000), wk =   0.0987654
        k(   20) = (   0.3333333   0.2787903   0.0000000), wk =   0.0987654
        k(   21) = (   0.4444444   0.0000000   0.0000000), wk =   0.0493827
        k(   22) = (   0.4444444   0.0696976   0.0000000), wk =   0.0987654
        k(   23) = (   0.4444444   0.1393952   0.0000000), wk =   0.0987654
        k(   24) = (   0.4444444   0.2090927   0.0000000), wk =   0.0987654
        k(   25) = (   0.4444444   0.2787903   0.0000000), wk =   0.0987654

     Dense  grid:  2153235 G-vectors     FFT dimensions: (  80, 128, 432)

     Estimated max dynamical RAM per process >      83.23 MB

     Estimated total dynamical RAM >       6.10 GB

     Initial potential from superposition of free atoms

     starting charge      43.9998, renormalised to      44.0000

     negative rho (up, down):  1.112E-03 0.000E+00
     Starting wfcs are   32 randomized atomic wfcs

     total cpu time spent up to now is       63.6 secs

     Self-consistent Calculation

     iteration #  1     ecut=   600.00 Ry     beta= 0.70
     Davidson diagonalization with overlap
     ethr =  1.00E-02,  avg # of iterations =  3.1

     Threshold (ethr) on eigenvalues was too large:
     Diagonalizing with lowered threshold

     Davidson diagonalization with overlap
     ethr =  9.94E-04,  avg # of iterations =  1.0

     negative rho (up, down):  2.957E-04 0.000E+00

     total cpu time spent up to now is      479.7 secs

     total energy              =    -240.13774347 Ry
     estimated scf accuracy    <       0.42524103 Ry

     iteration #  2     ecut=   600.00 Ry     beta= 0.70
     Davidson diagonalization with overlap
     ethr =  9.66E-04,  avg # of iterations =  3.1

     negative rho (up, down):  1.692E-04 0.000E+00

     total cpu time spent up to now is      741.4 secs

     total energy              =    -240.15687796 Ry
     estimated scf accuracy    <       0.32115136 Ry

     iteration #  3     ecut=   600.00 Ry     beta= 0.70
     Davidson diagonalization with overlap
     ethr =  7.30E-04,  avg # of iterations =  2.4

     negative rho (up, down):  3.056E-05 0.000E+00

     total cpu time spent up to now is      964.5 secs

     total energy              =    -240.24354171 Ry
     estimated scf accuracy    <       0.02768238 Ry

     iteration #  4     ecut=   600.00 Ry     beta= 0.70
     Davidson diagonalization with overlap
     ethr =  6.29E-05,  avg # of iterations =  3.6

     negative rho (up, down):  5.784E-06 0.000E+00

     total cpu time spent up to now is     1240.4 secs

     total energy              =    -240.24711519 Ry
     estimated scf accuracy    <       0.00095485 Ry

     iteration #  5     ecut=   600.00 Ry     beta= 0.70
     Davidson diagonalization with overlap
     ethr =  2.17E-06,  avg # of iterations =  6.2

     negative rho (up, down):  5.137E-06 0.000E+00

     total cpu time spent up to now is     1670.9 secs

     total energy              =    -240.24740813 Ry
     estimated scf accuracy    <       0.00002941 Ry

     iteration #  6     ecut=   600.00 Ry     beta= 0.70
     Davidson diagonalization with overlap
     ethr =  6.68E-08,  avg # of iterations =  2.7

     negative rho (up, down):  5.288E-06 0.000E+00

     total cpu time spent up to now is     1908.3 secs

     total energy              =    -240.24741103 Ry
     estimated scf accuracy    <       0.00000398 Ry

     iteration #  7     ecut=   600.00 Ry     beta= 0.70
     Davidson diagonalization with overlap
     ethr =  9.04E-09,  avg # of iterations =  2.7

     negative rho (up, down):  5.281E-06 0.000E+00

     total cpu time spent up to now is     2148.6 secs

     total energy              =    -240.24741238 Ry
     estimated scf accuracy    <       0.00000055 Ry

     iteration #  8     ecut=   600.00 Ry     beta= 0.70
     Davidson diagonalization with overlap
     ethr =  1.25E-09,  avg # of iterations =  2.0

     negative rho (up, down):  5.280E-06 0.000E+00

     total cpu time spent up to now is     2344.1 secs

     total energy              =    -240.24741245 Ry
     estimated scf accuracy    <       0.00000002 Ry

     iteration #  9     ecut=   600.00 Ry     beta= 0.70
     Davidson diagonalization with overlap
     ethr =  4.11E-11,  avg # of iterations =  3.5

     negative rho (up, down):  5.279E-06 0.000E+00

     total cpu time spent up to now is     2627.2 secs

     End of self-consistent calculation

          k = 0.0000 0.0000 0.0000 (269213 PWs)   bands (ev):

   -28.1834 -27.9022 -26.6494 -26.5318 -18.8098 -15.5402 -13.5842 -11.1232
   -10.3489  -9.9809  -8.6995  -8.2805  -7.6842  -7.5566  -7.3229  -5.4480
    -5.3045  -5.2488  -4.5965  -4.2727  -4.0437  -2.7239   0.8195   3.2719
     3.3854   4.4163

          k = 0.0000 0.0697 0.0000 (269260 PWs)   bands (ev):

   -28.1535 -27.8805 -26.6851 -26.5656 -18.7490 -15.7621 -13.3993 -11.0867
   -10.2359 -10.0143  -8.6504  -8.2937  -7.7774  -7.4624  -7.3375  -5.4949
    -5.3765  -5.3392  -4.6556  -4.2413  -4.0042  -2.7761   0.9617   3.2975
     3.3799   4.6003

          k = 0.0000 0.1394 0.0000 (269272 PWs)   bands (ev):

   -28.0685 -27.8231 -26.7795 -26.6586 -18.5684 -16.2587 -12.9912 -11.0546
   -10.0359  -9.9385  -8.5079  -8.3458  -8.0327  -7.3955  -7.2106  -5.6581
    -5.6039  -5.4307  -4.7835  -4.2399  -3.8947  -2.9159   1.3474   3.3474
     3.3736   5.1158

          k = 0.0000 0.2091 0.0000 (269234 PWs)   bands (ev):

   -27.9447 -27.7579 -26.8919 -26.7860 -18.2733 -16.8306 -12.5130 -11.2093
    -9.8637  -9.5572  -8.4677  -8.4105  -8.2876  -7.5279  -6.8618  -5.9606
    -5.6995  -5.5492  -4.8691  -4.3656  -3.7333  -3.1088   1.8841   3.2349
     3.4991   4.3675

          k = 0.0000 0.2788 0.0000 (269118 PWs)   bands (ev):

   -27.8161 -27.7412 -26.9515 -26.9046 -17.8734 -17.3840 -12.0237 -11.5667
    -9.5039  -9.2692  -8.7696  -8.6741  -8.0187  -7.7470  -6.5172  -6.2335
    -5.7196  -5.6585  -4.8088  -4.5978  -3.5376  -3.3235   2.4629   2.9512
     3.6831   3.9647

          k = 0.1111 0.0000 0.0000 (269227 PWs)   bands (ev):

   -28.0993 -27.8281 -26.6474 -26.5320 -18.6561 -15.3908 -13.5224 -10.9999
   -10.2737 -10.0027  -9.3979  -8.3832  -7.7870  -7.6322  -7.4610  -5.7737
    -5.5924  -5.3186  -4.6936  -4.3840  -4.1912  -3.2726   1.0600   4.0617
     4.1786   4.3919

          k = 0.1111 0.0697 0.0000 (269181 PWs)   bands (ev):

   -28.0706 -27.8074 -26.6807 -26.5636 -18.5958 -15.6176 -13.3352 -10.9754
   -10.1819 -10.0374  -9.3378  -8.4122  -7.8019  -7.7278  -7.3694  -5.8378
    -5.6205  -5.3260  -4.7101  -4.3603  -4.2081  -3.3345   1.1841   4.1710
     4.2294   4.4090

          k = 0.1111 0.1394 0.0000 (269185 PWs)   bands (ev):

   -27.9892 -27.7526 -26.7686 -26.6507 -18.4169 -16.1187 -12.9309 -10.9774
   -10.0644  -9.9566  -9.1584  -8.5071  -7.9702  -7.8472  -7.1310  -5.9310
    -5.6811  -5.4356  -4.7753  -4.2770  -4.2685  -3.4751   1.5309   4.1082
     4.4564   4.6233

          k = 0.1111 0.2091 0.0000 (269195 PWs)   bands (ev):

   -27.8706 -27.6906 -26.8733 -26.7705 -18.1244 -16.6906 -12.4647 -11.1665
    -9.9235  -9.7036  -8.9172  -8.6697  -8.2571  -7.9318  -6.7987  -5.9730
    -5.7351  -5.6712  -4.8508  -4.4408  -4.1165  -3.6220   2.0405   3.8335
     4.5215   4.7149

          k = 0.1111 0.2788 0.0000 (269182 PWs)   bands (ev):

   -27.7474 -27.6753 -26.9281 -26.8827 -17.7276 -17.2415 -11.9881 -11.5358
    -9.6575  -9.5394  -8.8749  -8.8462  -8.2816  -8.0814  -6.4431  -6.1186
    -5.8116  -5.7771  -4.8343  -4.6684  -3.9399  -3.7706   2.6474   3.2844
     4.5856   4.6401

          k = 0.2222 0.0000 0.0000 (269127 PWs)   bands (ev):

   -27.8653 -27.6224 -26.6594 -26.5476 -18.1984 -14.9499 -13.4535 -10.7346
   -10.6580 -10.1878 -10.0749  -8.7789  -8.7616  -7.7478  -7.2011  -6.2214
    -6.2161  -5.6456  -5.2523  -4.6727  -4.2690  -4.2415   1.6435   3.8187
     5.5378   6.0042

          k = 0.2222 0.0697 0.0000 (269129 PWs)   bands (ev):

   -27.8405 -27.6048 -26.6855 -26.5730 -18.1400 -15.1932 -13.2672 -10.7187
   -10.6831 -10.2425  -9.9396  -8.9562  -8.5980  -7.8533  -7.1481  -6.2334
    -6.2028  -5.5604  -5.1965  -4.6693  -4.4079  -4.2378   1.7332   3.9779
     5.5091   6.0321

          k = 0.2222 0.1394 0.0000 (269183 PWs)   bands (ev):

   -27.7700 -27.5583 -26.7547 -26.6434 -17.9662 -15.7067 -12.8969 -10.8389
   -10.6534 -10.3131  -9.6128  -9.1220  -8.4600  -8.1050  -6.9931  -6.2130
    -6.1695  -5.4580  -5.0759  -4.6570  -4.6524  -4.3040   1.9995   4.3738
     5.3213   5.9269

          k = 0.2222 0.2091 0.0000 (269148 PWs)   bands (ev):

   -27.6675 -27.5067 -26.8366 -26.7413 -17.6818 -16.2769 -12.4891 -11.1847
   -10.5384 -10.3096  -9.2782  -9.2297  -8.3732  -8.3553  -6.7451  -6.1438
    -6.1149  -5.5921  -5.0056  -4.8669  -4.5824  -4.3605   2.4320   4.3749
     5.3012   5.9333

          k = 0.2222 0.2788 0.0000 (269222 PWs)   bands (ev):

   -27.5608 -27.4965 -26.8765 -26.8350 -17.2950 -16.8194 -12.0617 -11.6175
   -10.4096 -10.3222  -9.2352  -9.1718  -8.4199  -8.3642  -6.4177  -6.1307
    -6.0407  -5.9103  -5.0140  -4.9863  -4.4675  -4.3917   3.0110   3.6997
     5.7563   6.0250

          k = 0.3333 0.0000 0.0000 (268969 PWs)   bands (ev):

   -27.5349 -27.3323 -26.7299 -26.6165 -17.4470 -14.2395 -13.9475 -11.4991
   -10.9806 -10.2688  -9.8298  -9.3684  -9.3493  -8.0925  -7.0380  -6.5413
    -6.3830  -6.2864  -5.8601  -4.9902  -4.8382  -4.5842   2.3900   4.0392
     5.5442   6.9372

          k = 0.3333 0.0697 0.0000 (268971 PWs)   bands (ev):

   -27.5167 -27.3201 -26.7452 -26.6325 -17.3918 -14.5518 -13.7584 -11.3970
   -11.1609 -10.2993  -9.7618  -9.5417  -9.0660  -8.1950  -6.9617  -6.5905
    -6.3904  -6.1508  -5.7384  -5.1422  -4.8081  -4.5391   2.4518   4.1384
     5.4964   6.9214

          k = 0.3333 0.1394 0.0000 (269086 PWs)   bands (ev):

   -27.4653 -27.2889 -26.7854 -26.6775 -17.2275 -15.0671 -13.5219 -11.5744
   -11.1759 -10.3953  -9.6163  -9.6154  -8.7566  -8.3651  -6.8371  -6.6006
    -6.3599  -5.8797  -5.5119  -5.4172  -4.7340  -4.5368   2.6465   4.3936
     5.3284   6.2916

          k = 0.3333 0.2091 0.0000 (269163 PWs)   bands (ev):

   -27.3907 -27.2571 -26.8306 -26.7418 -16.9579 -15.6169 -13.2551 -12.0568
   -10.9529 -10.5120  -9.6464  -9.5478  -8.5115  -8.4124  -6.7655  -6.4288
    -6.3773  -5.6600  -5.5963  -5.3482  -4.6559  -4.5998   2.9924   4.5318
     5.1443   5.8794

          k = 0.3333 0.2788 0.0000 (269173 PWs)   bands (ev):

   -27.3116 -27.2586 -26.8446 -26.8073 -16.5903 -16.1365 -12.9243 -12.5204
   -10.7706 -10.6301  -9.6438  -9.5946  -8.3760  -8.3628  -6.6616  -6.5075
    -6.1472  -5.8639  -5.4136  -5.3201  -4.6262  -4.6188   3.4918   4.0859
     5.3205   5.5705

          k = 0.4444 0.0000 0.0000 (269064 PWs)   bands (ev):

   -27.1873 -27.0266 -26.9034 -26.7746 -16.4205 -15.1723 -13.2953 -12.1685
   -11.2401 -10.6112  -9.6359  -9.5140  -9.2041  -8.6156  -7.1616  -6.8997
    -6.3601  -6.2214  -6.1202  -5.5730  -4.9440  -4.8758   3.2728   4.3492
     4.7535   5.8827

          k = 0.4444 0.0697 0.0000 (269011 PWs)   bands (ev):

   -27.1789 -27.0236 -26.9051 -26.7797 -16.3708 -15.1394 -13.4907 -12.3772
   -11.1121 -10.5328  -9.6752  -9.6557  -9.0105  -8.6232  -7.0391  -6.7813
    -6.4609  -6.4014  -5.8964  -5.6284  -4.8866  -4.7998   3.3169   4.3716
     4.7517   5.7338

          k = 0.4444 0.1394 0.0000 (269105 PWs)   bands (ev):

   -27.1555 -27.0190 -26.9066 -26.7947 -16.2232 -15.0594 -13.9005 -12.8349
   -10.8815 -10.4465  -9.8642  -9.7407  -8.7137  -8.5586  -6.7860  -6.6670
    -6.5681  -6.4481  -5.6797  -5.6623  -4.7655  -4.6987   3.4582   4.4245
     4.7797   5.4572

          k = 0.4444 0.2091 0.0000 (269126 PWs)   bands (ev):

   -27.1214 -27.0247 -26.8985 -26.8180 -15.9824 -15.0471 -14.2130 -13.3416
   -10.7075 -10.4675  -9.9582  -9.8665  -8.4593  -8.4101  -6.8921  -6.7453
    -6.3590  -6.0783  -5.6421  -5.5431  -4.6784  -4.6757   3.7035   4.3998
     4.9438   5.2476

          k = 0.4444 0.2788 0.0000 (269121 PWs)   bands (ev):

   -27.0829 -27.0478 -26.8764 -26.8470 -15.6612 -15.2998 -14.1386 -13.7993
   -10.6066 -10.5364  -9.9819  -9.9554  -8.3136  -8.3019  -6.9490  -6.8944
    -5.9927  -5.7775  -5.6818  -5.5432  -4.6857  -4.6687   4.0053   4.2552
     5.1340   5.1743

     the Fermi energy is    -0.4824 ev

!    total energy              =    -240.24741246 Ry
     estimated scf accuracy    <          1.8E-09 Ry
     smearing contrib. (-TS)   =      -0.00000000 Ry
     internal energy E=F+TS    =    -240.24741246 Ry

     The total energy is F=E-TS. E is the sum of the following terms:
     one-electron contribution =   -1256.48196863 Ry
     hartree contribution      =     642.01114735 Ry
     xc contribution           =     -51.69326389 Ry
     ewald contribution        =     425.91667271 Ry

     convergence has been achieved in   9 iterations

     negative rho (up, down):  5.279E-06 0.000E+00

     Forces acting on atoms (cartesian axes, Ry/au):

     atom    1 type  1   force =     0.00000000   -0.00004340   -0.00000769
     atom    2 type  1   force =     0.00000000   -0.00004340    0.00000769
     atom    3 type  1   force =     0.00000000    0.00004340   -0.00000769
     atom    4 type  1   force =     0.00000000    0.00004340    0.00000769
     atom    5 type  2   force =     0.00000000   -0.00003071   -0.00002812
     atom    6 type  2   force =     0.00000000   -0.00003071    0.00002812
     atom    7 type  2   force =     0.00000000    0.00003071   -0.00002812
     atom    8 type  2   force =     0.00000000    0.00003071    0.00002812

     Total force =     0.000121     Total SCF correction =     0.000206
     SCF correction compared to forces is large: reduce conv_thr to get better values


     Computing stress (Cartesian axis) and pressure


     negative rho (up, down):  5.279E-06 0.000E+00
          total   stress  (Ry/bohr**3)                   (kbar)     P=       -0.06
  -0.00000072   0.00000000   0.00000000           -0.11        0.00        0.00
   0.00000000  -0.00000040   0.00000000            0.00       -0.06        0.00
   0.00000000   0.00000000  -0.00000020            0.00        0.00       -0.03


     Writing all to output data dir ../tmp/fgz.save/

     init_run     :     34.56s CPU     62.98s WALL (       1 calls)
     electrons    :   1420.67s CPU   2564.08s WALL (       1 calls)
     forces       :     31.38s CPU     62.62s WALL (       1 calls)
     stress       :     15.28s CPU     35.69s WALL (       1 calls)

     Called by init_run:
     wfcinit      :     32.98s CPU     61.11s WALL (       1 calls)
     potinit      :      0.18s CPU      0.19s WALL (       1 calls)
     hinit0       :      0.57s CPU      0.59s WALL (       1 calls)

     Called by electrons:
     c_bands      :   1365.53s CPU   2437.37s WALL (      10 calls)
     sum_band     :     52.64s CPU    121.81s WALL (      10 calls)
     v_of_rho     :      0.34s CPU      0.37s WALL (      10 calls)
     newd         :      1.77s CPU      3.87s WALL (      10 calls)
     mix_rho      :      0.23s CPU      0.29s WALL (      10 calls)

     Called by c_bands:
     init_us_2    :      0.41s CPU      1.01s WALL (     575 calls)
     init_us_2:cp :      0.41s CPU      1.01s WALL (     575 calls)
     cegterg      :   1295.22s CPU   2304.23s WALL (     250 calls)

     Called by *egterg:
     cdiaghg      :    129.33s CPU    100.54s WALL (     982 calls)
     h_psi        :    322.82s CPU    778.76s WALL (    1032 calls)
     s_psi        :     13.38s CPU     35.07s WALL (    1032 calls)
     g_psi        :      0.19s CPU      0.12s WALL (     757 calls)

     Called by h_psi:
     h_psi:calbec :    199.46s CPU    484.02s WALL (    1032 calls)
     vloc_psi     :     59.42s CPU     72.49s WALL (    1032 calls)
     add_vuspsi   :     63.71s CPU    221.53s WALL (    1032 calls)

     General routines
     calbec       :    283.86s CPU    670.59s WALL (    1407 calls)
     fft          :      0.81s CPU      0.86s WALL (     136 calls)
     ffts         :      0.02s CPU      0.03s WALL (      10 calls)
     fftw         :     61.95s CPU     74.32s WALL (   42024 calls)

     Parallel routines

     PWSCF        :  25m 3.62s CPU  45m37.86s WALL


   This run was terminated on:  18:54:23  19Jan2024            

=------------------------------------------------------------------------------=
   JOB DONE.
=------------------------------------------------------------------------------=
