
     Program PWSCF v.7.1 starts on 20Jan2024 at  1: 7:14 

     This program is part of the open-source Quantum ESPRESSO suite
     for quantum simulation of materials; please cite
         "P. Giannozzi et al., J. Phys.:Condens. Matter 21 395502 (2009);
         "P. Giannozzi et al., J. Phys.:Condens. Matter 29 465901 (2017);
         "P. Giannozzi et al., J. Chem. Phys. 152 154105 (2020);
          URL http://www.quantum-espresso.org", 
     in publications or presentations arising from this work. More details at
     http://www.quantum-espresso.org/quote

     Parallel version (MPI), running on    75 processors

     MPI processes distributed on     1 nodes
     338936 MiB available memory on the printing compute node when the environment starts

     Reading input from ecut.1800.in

     Current dimensions of program PWSCF are:
     Max number of different atomic species (ntypx) = 10
     Max number of k-points (npk) =  40000
     Max angular momentum in pseudopotentials (lmaxx) =  4
     Message from routine setup:
     using ibrav=0 with symmetry is DISCOURAGED, use correct ibrav instead

     R & G space division:  proc/nbgrp/npool/nimage =      75
     Subspace diagonalization in iterative solution of the eigenvalue problem:
     a serial algorithm will be used


     Parallelization info
     --------------------
     sticks:   dense  smooth     PW     G-vecs:    dense   smooth      PW
     Min         300     300     77               149148   149148   19523
     Max         301     301     78               149179   149179   19542
     Sum       22557   22557   5817             11187459 11187459 1464881

     Using Slab Decomposition



     bravais-lattice index     =            0
     lattice parameter (alat)  =       4.9702  a.u.
     unit-cell volume          =    1084.4437 (a.u.)^3
     number of atoms/cell      =            8
     number of atomic types    =            2
     number of electrons       =        44.00
     number of Kohn-Sham states=           26
     kinetic-energy cutoff     =    1800.0000  Ry
     charge density cutoff     =    7200.0000  Ry
     scf convergence threshold =      1.0E-08
     mixing beta               =       0.7000
     number of iterations used =            8  plain     mixing
     Exchange-correlation=  SLA  PW   PBX  PBC
                           (   1   4   3   4   0   0   0)

     celldm(1)=   4.970237  celldm(2)=   0.000000  celldm(3)=   0.000000
     celldm(4)=   0.000000  celldm(5)=   0.000000  celldm(6)=   0.000000

     crystal axes: (cart. coord. in units of alat)
               a(1) = (   1.000000   0.000000   0.000000 )  
               a(2) = (   0.000000   1.594189   0.000000 )  
               a(3) = (   0.000000   0.000000   5.540333 )  

     reciprocal axes: (cart. coord. in units 2 pi/alat)
               b(1) = (  1.000000  0.000000  0.000000 )  
               b(2) = (  0.000000  0.627278  0.000000 )  
               b(3) = (  0.000000  0.000000  0.180495 )  


     PseudoPot. # 1 for C  read from file:
     ../pseudo/c_pbe_v1.2.uspp.F.UPF
     MD5 check sum: d1aef80898a10debaa0f26306b886e00
     Pseudo is Ultrasoft + core correction, Zval =  4.0
     Generated by new atomic code, or converted to UPF format
     Using radial grid of  721 points,  4 beta functions with: 
                l(1) =   0
                l(2) =   0
                l(3) =   1
                l(4) =   1
     Q(r) pseudized with  8 coefficients,  rinner =    1.100   1.100   1.100


     PseudoPot. # 2 for F  read from file:
     ../pseudo/f_pbe_v1.4.uspp.F.UPF
     MD5 check sum: 4c38b6a325caf53ec0e86aed9459de46
     Pseudo is Ultrasoft, Zval =  7.0
     Generated by new atomic code, or converted to UPF format
     Using radial grid of  799 points,  4 beta functions with: 
                l(1) =   0
                l(2) =   0
                l(3) =   1
                l(4) =   1
     Q(r) pseudized with  8 coefficients,  rinner =    0.950   0.950   0.950


     atomic species   valence    mass     pseudopotential
        C              4.00    12.01070     C ( 1.00)
        F              7.00    18.99840     F ( 1.00)

      8 Sym. Ops., with inversion, found ( 4 have fractional translation)



   Cartesian axes

     site n.     atom                  positions (alat units)
         1           C   tau(   1) = (   0.5000000   0.2256478   0.1937169  )
         2           C   tau(   2) = (   0.0000000   1.0227422  -0.1937169  )
         3           C   tau(   3) = (   0.0000000   0.5714467   0.1937169  )
         4           C   tau(   4) = (   0.5000000   1.3685411  -0.1937169  )
         5           F   tau(   5) = (   0.5000000  -0.0095812  -0.6719762  )
         6           F   tau(   6) = (   0.0000000   0.7875132   0.6719762  )
         7           F   tau(   7) = (   0.0000000   0.8066757  -0.6719762  )
         8           F   tau(   8) = (   0.5000000   0.0095812   0.6719762  )

     number of k points=    25  Marzari-Vanderbilt smearing, width (Ry)=  0.0200
                       cart. coord. in units 2pi/alat
        k(    1) = (   0.0000000   0.0000000   0.0000000), wk =   0.0246914
        k(    2) = (   0.0000000   0.0696976   0.0000000), wk =   0.0493827
        k(    3) = (   0.0000000   0.1393952   0.0000000), wk =   0.0493827
        k(    4) = (   0.0000000   0.2090927   0.0000000), wk =   0.0493827
        k(    5) = (   0.0000000   0.2787903   0.0000000), wk =   0.0493827
        k(    6) = (   0.1111111   0.0000000   0.0000000), wk =   0.0493827
        k(    7) = (   0.1111111   0.0696976   0.0000000), wk =   0.0987654
        k(    8) = (   0.1111111   0.1393952   0.0000000), wk =   0.0987654
        k(    9) = (   0.1111111   0.2090927   0.0000000), wk =   0.0987654
        k(   10) = (   0.1111111   0.2787903   0.0000000), wk =   0.0987654
        k(   11) = (   0.2222222   0.0000000   0.0000000), wk =   0.0493827
        k(   12) = (   0.2222222   0.0696976   0.0000000), wk =   0.0987654
        k(   13) = (   0.2222222   0.1393952   0.0000000), wk =   0.0987654
        k(   14) = (   0.2222222   0.2090927   0.0000000), wk =   0.0987654
        k(   15) = (   0.2222222   0.2787903   0.0000000), wk =   0.0987654
        k(   16) = (   0.3333333   0.0000000   0.0000000), wk =   0.0493827
        k(   17) = (   0.3333333   0.0696976   0.0000000), wk =   0.0987654
        k(   18) = (   0.3333333   0.1393952   0.0000000), wk =   0.0987654
        k(   19) = (   0.3333333   0.2090927   0.0000000), wk =   0.0987654
        k(   20) = (   0.3333333   0.2787903   0.0000000), wk =   0.0987654
        k(   21) = (   0.4444444   0.0000000   0.0000000), wk =   0.0493827
        k(   22) = (   0.4444444   0.0696976   0.0000000), wk =   0.0987654
        k(   23) = (   0.4444444   0.1393952   0.0000000), wk =   0.0987654
        k(   24) = (   0.4444444   0.2090927   0.0000000), wk =   0.0987654
        k(   25) = (   0.4444444   0.2787903   0.0000000), wk =   0.0987654

     Dense  grid: 11187459 G-vectors     FFT dimensions: ( 144, 216, 750)

     Estimated max dynamical RAM per process >     424.11 MB

     Estimated total dynamical RAM >      31.06 GB

     Initial potential from superposition of free atoms

     starting charge      43.9998, renormalised to      44.0000

     negative rho (up, down):  5.117E-02 0.000E+00
     Starting wfcs are   32 randomized atomic wfcs

     total cpu time spent up to now is       87.1 secs

     Self-consistent Calculation

     iteration #  1     ecut=  1800.00 Ry     beta= 0.70
     Davidson diagonalization with overlap
     ethr =  1.00E-02,  avg # of iterations =  7.2

     Threshold (ethr) on eigenvalues was too large:
     Diagonalizing with lowered threshold

     Davidson diagonalization with overlap
     ethr =  6.80E-04,  avg # of iterations =  2.9

     negative rho (up, down):  1.356E-02 0.000E+00

     total cpu time spent up to now is      967.2 secs

     total energy              =    -240.07267687 Ry
     estimated scf accuracy    <       0.28107509 Ry

     iteration #  2     ecut=  1800.00 Ry     beta= 0.70
     Davidson diagonalization with overlap
     ethr =  6.39E-04,  avg # of iterations =  4.6

     negative rho (up, down):  7.624E-03 0.000E+00

     total cpu time spent up to now is     1371.4 secs

     total energy              =    -240.09729122 Ry
     estimated scf accuracy    <       0.18171474 Ry

     iteration #  3     ecut=  1800.00 Ry     beta= 0.70
     Davidson diagonalization with overlap
     ethr =  4.13E-04,  avg # of iterations =  3.0

     negative rho (up, down):  3.021E-04 0.000E+00

     total cpu time spent up to now is     1685.7 secs

     total energy              =    -240.23807888 Ry
     estimated scf accuracy    <       0.03507358 Ry

     iteration #  4     ecut=  1800.00 Ry     beta= 0.70
     Davidson diagonalization with overlap
     ethr =  7.97E-05,  avg # of iterations =  3.2

     negative rho (up, down):  2.002E-04 0.000E+00

     total cpu time spent up to now is     2007.4 secs

     total energy              =    -240.24668250 Ry
     estimated scf accuracy    <       0.00123587 Ry

     iteration #  5     ecut=  1800.00 Ry     beta= 0.70
     Davidson diagonalization with overlap
     ethr =  2.81E-06,  avg # of iterations =  7.2

     negative rho (up, down):  2.795E-05 0.000E+00

     total cpu time spent up to now is     2544.8 secs

     total energy              =    -240.24745262 Ry
     estimated scf accuracy    <       0.00009222 Ry

     iteration #  6     ecut=  1800.00 Ry     beta= 0.70
     Davidson diagonalization with overlap
     ethr =  2.10E-07,  avg # of iterations =  2.8

     negative rho (up, down):  2.738E-06 0.000E+00

     total cpu time spent up to now is     2844.2 secs

     total energy              =    -240.24748337 Ry
     estimated scf accuracy    <       0.00000613 Ry

     iteration #  7     ecut=  1800.00 Ry     beta= 0.70
     Davidson diagonalization with overlap
     ethr =  1.39E-08,  avg # of iterations =  3.1

     negative rho (up, down):  1.566E-06 0.000E+00

     total cpu time spent up to now is     3156.3 secs

     total energy              =    -240.24748423 Ry
     estimated scf accuracy    <       0.00000040 Ry

     iteration #  8     ecut=  1800.00 Ry     beta= 0.70
     Davidson diagonalization with overlap
     ethr =  9.09E-10,  avg # of iterations =  2.2

     negative rho (up, down):  1.573E-07 0.000E+00

     total cpu time spent up to now is     3430.6 secs

     total energy              =    -240.24748439 Ry
     estimated scf accuracy    <       0.00000001 Ry

     iteration #  9     ecut=  1800.00 Ry     beta= 0.70
     Davidson diagonalization with overlap
     ethr =  2.85E-11,  avg # of iterations =  3.4

     negative rho (up, down):  1.833E-07 0.000E+00

     total cpu time spent up to now is     3772.9 secs

     End of self-consistent calculation

          k = 0.0000 0.0000 0.0000 (****** PWs)   bands (ev):

   -28.1834 -27.9022 -26.6495 -26.5319 -18.8096 -15.5401 -13.5841 -11.1232
   -10.3489  -9.9809  -8.6994  -8.2806  -7.6842  -7.5567  -7.3229  -5.4481
    -5.3046  -5.2490  -4.5966  -4.2727  -4.0437  -2.7239   0.8196   3.2720
     3.3855   4.4165

          k = 0.0000 0.0697 0.0000 (****** PWs)   bands (ev):

   -28.1535 -27.8805 -26.6852 -26.5657 -18.7488 -15.7619 -13.3992 -11.0867
   -10.2359 -10.0144  -8.6503  -8.2937  -7.7774  -7.4625  -7.3376  -5.4951
    -5.3766  -5.3394  -4.6557  -4.2413  -4.0043  -2.7760   0.9618   3.2977
     3.3800   4.6004

          k = 0.0000 0.1394 0.0000 (****** PWs)   bands (ev):

   -28.0686 -27.8231 -26.7796 -26.6587 -18.5682 -16.2586 -12.9911 -11.0546
   -10.0360  -9.9385  -8.5079  -8.3458  -8.0327  -7.3955  -7.2107  -5.6582
    -5.6040  -5.4308  -4.7836  -4.2399  -3.8948  -2.9159   1.3475   3.3475
     3.3738   4.7161

          k = 0.0000 0.2091 0.0000 (****** PWs)   bands (ev):

   -27.9447 -27.7579 -26.8920 -26.7860 -18.2732 -16.8304 -12.5129 -11.2093
    -9.8638  -9.5572  -8.4677  -8.4105  -8.2876  -7.5279  -6.8619  -5.9607
    -5.6996  -5.5493  -4.8692  -4.3656  -3.7334  -3.1087   1.8842   3.2350
     3.4993   4.3678

          k = 0.0000 0.2788 0.0000 (****** PWs)   bands (ev):

   -27.8161 -27.7412 -26.9516 -26.9046 -17.8732 -17.3838 -12.0237 -11.5667
    -9.5040  -9.2692  -8.7696  -8.6741  -8.0186  -7.7470  -6.5173  -6.2336
    -5.7197  -5.6587  -4.8089  -4.5978  -3.5376  -3.3235   2.4629   2.9513
     3.6833   3.9648

          k = 0.1111 0.0000 0.0000 (****** PWs)   bands (ev):

   -28.0993 -27.8282 -26.6475 -26.5320 -18.6559 -15.3906 -13.5222 -10.9999
   -10.2737 -10.0028  -9.3978  -8.3833  -7.7870  -7.6322  -7.4611  -5.7738
    -5.5925  -5.3188  -4.6937  -4.3841  -4.1912  -3.2725   1.0600   4.0621
     4.1787   4.3920

          k = 0.1111 0.0697 0.0000 (****** PWs)   bands (ev):

   -28.0707 -27.8075 -26.6808 -26.5636 -18.5957 -15.6174 -13.3351 -10.9754
   -10.1819 -10.0375  -9.3377  -8.4122  -7.8019  -7.7278  -7.3695  -5.8380
    -5.6206  -5.3261  -4.7102  -4.3604  -4.2081  -3.3344   1.1842   4.1711
     4.2299   4.4092

          k = 0.1111 0.1394 0.0000 (****** PWs)   bands (ev):

   -27.9892 -27.7527 -26.7687 -26.6508 -18.4167 -16.1185 -12.9308 -10.9774
   -10.0644  -9.9566  -9.1583  -8.5072  -7.9702  -7.8472  -7.1311  -5.9311
    -5.6813  -5.4357  -4.7754  -4.2770  -4.2686  -3.4751   1.5309   4.1083
     4.4566   4.6241

          k = 0.1111 0.2091 0.0000 (****** PWs)   bands (ev):

   -27.8706 -27.6907 -26.8734 -26.7706 -18.1242 -16.6904 -12.4646 -11.1665
    -9.9235  -9.7036  -8.9171  -8.6697  -8.2571  -7.9318  -6.7988  -5.9731
    -5.7353  -5.6713  -4.8509  -4.4408  -4.1166  -3.6220   2.0405   3.8336
     4.5217   4.7153

          k = 0.1111 0.2788 0.0000 (****** PWs)   bands (ev):

   -27.7475 -27.6754 -26.9282 -26.8828 -17.7274 -17.2413 -11.9881 -11.5358
    -9.6576  -9.5394  -8.8749  -8.8462  -8.2816  -8.0814  -6.4432  -6.1187
    -5.8117  -5.7772  -4.8344  -4.6684  -3.9399  -3.7706   2.6475   3.2844
     4.5858   4.6402

          k = 0.2222 0.0000 0.0000 (****** PWs)   bands (ev):

   -27.8654 -27.6225 -26.6594 -26.5477 -18.1982 -14.9498 -13.4533 -10.7345
   -10.6579 -10.1879 -10.0749  -8.7789  -8.7616  -7.7478  -7.2012  -6.2215
    -6.2162  -5.6457  -5.2524  -4.6728  -4.2690  -4.2415   1.6435   3.8188
     5.5379   6.0210

          k = 0.2222 0.0697 0.0000 (****** PWs)   bands (ev):

   -27.8405 -27.6048 -26.6856 -26.5731 -18.1398 -15.1931 -13.2671 -10.7186
   -10.6831 -10.2426  -9.9396  -8.9562  -8.5980  -7.8534  -7.1482  -6.2335
    -6.2029  -5.5605  -5.1966  -4.6694  -4.4080  -4.2378   1.7333   3.9781
     5.5092   6.0446

          k = 0.2222 0.1394 0.0000 (****** PWs)   bands (ev):

   -27.7700 -27.5584 -26.7547 -26.6435 -17.9660 -15.7065 -12.8968 -10.8389
   -10.6533 -10.3131  -9.6128  -9.1220  -8.4600  -8.1050  -6.9932  -6.2131
    -6.1696  -5.4581  -5.0760  -4.6570  -4.6525  -4.3039   1.9996   4.3740
     5.3214   5.9292

          k = 0.2222 0.2091 0.0000 (****** PWs)   bands (ev):

   -27.6675 -27.5068 -26.8366 -26.7414 -17.6816 -16.2767 -12.4890 -11.1846
   -10.5383 -10.3095  -9.2782  -9.2297  -8.3732  -8.3553  -6.7452  -6.1439
    -6.1150  -5.5922  -5.0057  -4.8670  -4.5824  -4.3605   2.4320   4.3749
     5.3014   5.9338

          k = 0.2222 0.2788 0.0000 (****** PWs)   bands (ev):

   -27.5608 -27.4966 -26.8766 -26.8350 -17.2949 -16.8193 -12.0616 -11.6174
   -10.4095 -10.3222  -9.2352  -9.1718  -8.4199  -8.3642  -6.4178  -6.1308
    -6.0408  -5.9104  -5.0141  -4.9864  -4.4676  -4.3917   3.0111   3.6998
     5.7561   6.0251

          k = 0.3333 0.0000 0.0000 (****** PWs)   bands (ev):

   -27.5349 -27.3323 -26.7300 -26.6165 -17.4468 -14.2394 -13.9473 -11.4990
   -10.9806 -10.2687  -9.8298  -9.3684  -9.3493  -8.0925  -7.0382  -6.5414
    -6.3831  -6.2864  -5.8601  -4.9903  -4.8383  -4.5842   2.3900   4.0393
     5.5443   6.9373

          k = 0.3333 0.0697 0.0000 (****** PWs)   bands (ev):

   -27.5167 -27.3202 -26.7453 -26.6326 -17.3916 -14.5516 -13.7583 -11.3968
   -11.1608 -10.2992  -9.7618  -9.5418  -9.0660  -8.1951  -6.9618  -6.5905
    -6.3905  -6.1509  -5.7385  -5.1423  -4.8082  -4.5391   2.4519   4.1385
     5.4966   6.7877

          k = 0.3333 0.1394 0.0000 (****** PWs)   bands (ev):

   -27.4654 -27.2889 -26.7855 -26.6776 -17.2273 -15.0670 -13.5217 -11.5743
   -11.1758 -10.3953  -9.6163  -9.6154  -8.7566  -8.3652  -6.8372  -6.6007
    -6.3601  -5.8797  -5.5120  -5.4172  -4.7341  -4.5368   2.6466   4.3937
     5.3286   6.2917

          k = 0.3333 0.2091 0.0000 (****** PWs)   bands (ev):

   -27.3907 -27.2571 -26.8306 -26.7419 -16.9578 -15.6167 -13.2549 -12.0567
   -10.9528 -10.5120  -9.6464  -9.5478  -8.5116  -8.4124  -6.7655  -6.4289
    -6.3774  -5.6600  -5.5964  -5.3483  -4.6560  -4.5998   2.9925   4.5318
     5.1444   5.8795

          k = 0.3333 0.2788 0.0000 (****** PWs)   bands (ev):

   -27.3116 -27.2586 -26.8447 -26.8074 -16.5901 -16.1363 -12.9242 -12.5203
   -10.7705 -10.6301  -9.6439  -9.5946  -8.3761  -8.3628  -6.6617  -6.5076
    -6.1473  -5.8640  -5.4137  -5.3203  -4.6262  -4.6188   3.4919   4.0860
     5.3207   5.5707

          k = 0.4444 0.0000 0.0000 (****** PWs)   bands (ev):

   -27.1873 -27.0267 -26.9035 -26.7747 -16.4203 -15.1721 -13.2952 -12.1684
   -11.2400 -10.6111  -9.6359  -9.5141  -9.2042  -8.6156  -7.1617  -6.8998
    -6.3602  -6.2215  -6.1203  -5.5731  -4.9441  -4.8759   3.2729   4.3493
     4.7536   5.8827

          k = 0.4444 0.0697 0.0000 (****** PWs)   bands (ev):

   -27.1790 -27.0237 -26.9052 -26.7798 -16.3706 -15.1392 -13.4906 -12.3771
   -11.1120 -10.5327  -9.6752  -9.6557  -9.0106  -8.6232  -7.0392  -6.7814
    -6.4610  -6.4015  -5.8965  -5.6285  -4.8867  -4.7998   3.3170   4.3717
     4.7518   5.7339

          k = 0.4444 0.1394 0.0000 (****** PWs)   bands (ev):

   -27.1556 -27.0191 -26.9067 -26.7947 -16.2230 -15.0592 -13.9004 -12.8348
   -10.8814 -10.4465  -9.8643  -9.7407  -8.7138  -8.5586  -6.7861  -6.6671
    -6.5681  -6.4482  -5.6798  -5.6624  -4.7656  -4.6987   3.4582   4.4246
     4.7799   5.4573

          k = 0.4444 0.2091 0.0000 (****** PWs)   bands (ev):

   -27.1214 -27.0248 -26.8986 -26.8181 -15.9822 -15.0469 -14.2128 -13.3415
   -10.7074 -10.4675  -9.9582  -9.8665  -8.4594  -8.4101  -6.8922  -6.7454
    -6.3591  -6.0784  -5.6422  -5.5432  -4.6784  -4.6757   3.7036   4.3998
     4.9439   5.2477

          k = 0.4444 0.2788 0.0000 (****** PWs)   bands (ev):

   -27.0830 -27.0479 -26.8765 -26.8470 -15.6610 -15.2996 -14.1384 -13.7991
   -10.6066 -10.5363  -9.9819  -9.9554  -8.3137  -8.3020  -6.9491  -6.8944
    -5.9928  -5.7775  -5.6819  -5.5433  -4.6858  -4.6687   4.0053   4.2552
     5.1342   5.1745

     the Fermi energy is    -0.4823 ev

!    total energy              =    -240.24748440 Ry
     estimated scf accuracy    <          2.2E-09 Ry
     smearing contrib. (-TS)   =      -0.00000000 Ry
     internal energy E=F+TS    =    -240.24748440 Ry

     The total energy is F=E-TS. E is the sum of the following terms:
     one-electron contribution =   -1256.48188933 Ry
     hartree contribution      =     642.01111764 Ry
     xc contribution           =     -51.69338543 Ry
     ewald contribution        =     425.91667271 Ry

     convergence has been achieved in   9 iterations

     negative rho (up, down):  1.833E-07 0.000E+00

     Forces acting on atoms (cartesian axes, Ry/au):

     atom    1 type  1   force =     0.00000000   -0.00004151   -0.00000322
     atom    2 type  1   force =     0.00000000   -0.00004151    0.00000322
     atom    3 type  1   force =     0.00000000    0.00004151   -0.00000322
     atom    4 type  1   force =     0.00000000    0.00004151    0.00000322
     atom    5 type  2   force =     0.00000000   -0.00003728   -0.00003071
     atom    6 type  2   force =     0.00000000   -0.00003728    0.00003071
     atom    7 type  2   force =     0.00000000    0.00003728   -0.00003071
     atom    8 type  2   force =     0.00000000    0.00003728    0.00003071

     Total force =     0.000128     Total SCF correction =     0.000062
     SCF correction compared to forces is large: reduce conv_thr to get better values


     Computing stress (Cartesian axis) and pressure


     negative rho (up, down):  1.833E-07 0.000E+00
          total   stress  (Ry/bohr**3)                   (kbar)     P=        0.04
   0.00000003   0.00000000   0.00000000            0.00        0.00        0.00
   0.00000000   0.00000033   0.00000000            0.00        0.05        0.00
   0.00000000   0.00000000   0.00000038            0.00        0.00        0.06


     Writing all to output data dir ../tmp/fgz.save/

     init_run     :     55.57s CPU     86.50s WALL (       1 calls)
     electrons    :   2207.17s CPU   3688.77s WALL (       1 calls)
     forces       :     39.99s CPU     76.13s WALL (       1 calls)
     stress       :     38.91s CPU     76.70s WALL (       1 calls)

     Called by init_run:
     wfcinit      :     46.17s CPU     76.52s WALL (       1 calls)
     potinit      :      1.03s CPU      1.10s WALL (       1 calls)
     hinit0       :      1.22s CPU      1.25s WALL (       1 calls)

     Called by electrons:
     c_bands      :   2080.99s CPU   3475.00s WALL (      10 calls)
     sum_band     :    118.08s CPU    198.57s WALL (      10 calls)
     v_of_rho     :      2.32s CPU      2.50s WALL (      10 calls)
     newd         :      5.58s CPU     10.06s WALL (      10 calls)
     mix_rho      :      0.78s CPU      0.89s WALL (      10 calls)

     Called by c_bands:
     init_us_2    :      3.91s CPU      5.18s WALL (     575 calls)
     init_us_2:cp :      3.91s CPU      5.17s WALL (     575 calls)
     cegterg      :   2008.76s CPU   3338.21s WALL (     250 calls)

     Called by *egterg:
     cdiaghg      :    167.62s CPU    125.76s WALL (    1215 calls)
     h_psi        :    665.62s CPU   1246.26s WALL (    1265 calls)
     s_psi        :     33.50s CPU     69.20s WALL (    1265 calls)
     g_psi        :      1.16s CPU      0.85s WALL (     990 calls)

     Called by h_psi:
     h_psi:calbec :    260.39s CPU    609.28s WALL (    1265 calls)
     vloc_psi     :    312.01s CPU    353.67s WALL (    1265 calls)
     add_vuspsi   :     91.65s CPU    280.60s WALL (    1265 calls)

     General routines
     calbec       :    369.36s CPU    831.81s WALL (    1640 calls)
     fft          :      2.37s CPU      2.58s WALL (     136 calls)
     ffts         :      0.17s CPU      0.18s WALL (      10 calls)
     fftw         :    293.37s CPU    327.56s WALL (   45538 calls)

     Parallel routines

     PWSCF        :  39m 7.08s CPU      1h 6m WALL


   This run was terminated on:   2:13:42  20Jan2024            

=------------------------------------------------------------------------------=
   JOB DONE.
=------------------------------------------------------------------------------=
