
     Program PWSCF v.7.1 starts on 19Jan2024 at 22:15:56 

     This program is part of the open-source Quantum ESPRESSO suite
     for quantum simulation of materials; please cite
         "P. Giannozzi et al., J. Phys.:Condens. Matter 21 395502 (2009);
         "P. Giannozzi et al., J. Phys.:Condens. Matter 29 465901 (2017);
         "P. Giannozzi et al., J. Chem. Phys. 152 154105 (2020);
          URL http://www.quantum-espresso.org", 
     in publications or presentations arising from this work. More details at
     http://www.quantum-espresso.org/quote

     Parallel version (MPI), running on    75 processors

     MPI processes distributed on     1 nodes
     345185 MiB available memory on the printing compute node when the environment starts

     Reading input from ecut.1200.in

     Current dimensions of program PWSCF are:
     Max number of different atomic species (ntypx) = 10
     Max number of k-points (npk) =  40000
     Max angular momentum in pseudopotentials (lmaxx) =  4
     Message from routine setup:
     using ibrav=0 with symmetry is DISCOURAGED, use correct ibrav instead

     R & G space division:  proc/nbgrp/npool/nimage =      75
     Subspace diagonalization in iterative solution of the eigenvalue problem:
     a serial algorithm will be used


     Parallelization info
     --------------------
     sticks:   dense  smooth     PW     G-vecs:    dense   smooth      PW
     Min         200     200     52                81192    81192   10736
     Max         201     201     53                81205    81205   10750
     Sum       15043   15043   3907              6089901  6089901  805879

     Using Slab Decomposition



     bravais-lattice index     =            0
     lattice parameter (alat)  =       4.9702  a.u.
     unit-cell volume          =    1084.4437 (a.u.)^3
     number of atoms/cell      =            8
     number of atomic types    =            2
     number of electrons       =        44.00
     number of Kohn-Sham states=           26
     kinetic-energy cutoff     =    1200.0000  Ry
     charge density cutoff     =    4800.0000  Ry
     scf convergence threshold =      1.0E-08
     mixing beta               =       0.7000
     number of iterations used =            8  plain     mixing
     Exchange-correlation=  SLA  PW   PBX  PBC
                           (   1   4   3   4   0   0   0)

     celldm(1)=   4.970237  celldm(2)=   0.000000  celldm(3)=   0.000000
     celldm(4)=   0.000000  celldm(5)=   0.000000  celldm(6)=   0.000000

     crystal axes: (cart. coord. in units of alat)
               a(1) = (   1.000000   0.000000   0.000000 )  
               a(2) = (   0.000000   1.594189   0.000000 )  
               a(3) = (   0.000000   0.000000   5.540333 )  

     reciprocal axes: (cart. coord. in units 2 pi/alat)
               b(1) = (  1.000000  0.000000  0.000000 )  
               b(2) = (  0.000000  0.627278  0.000000 )  
               b(3) = (  0.000000  0.000000  0.180495 )  


     PseudoPot. # 1 for C  read from file:
     ../pseudo/c_pbe_v1.2.uspp.F.UPF
     MD5 check sum: d1aef80898a10debaa0f26306b886e00
     Pseudo is Ultrasoft + core correction, Zval =  4.0
     Generated by new atomic code, or converted to UPF format
     Using radial grid of  721 points,  4 beta functions with: 
                l(1) =   0
                l(2) =   0
                l(3) =   1
                l(4) =   1
     Q(r) pseudized with  8 coefficients,  rinner =    1.100   1.100   1.100


     PseudoPot. # 2 for F  read from file:
     ../pseudo/f_pbe_v1.4.uspp.F.UPF
     MD5 check sum: 4c38b6a325caf53ec0e86aed9459de46
     Pseudo is Ultrasoft, Zval =  7.0
     Generated by new atomic code, or converted to UPF format
     Using radial grid of  799 points,  4 beta functions with: 
                l(1) =   0
                l(2) =   0
                l(3) =   1
                l(4) =   1
     Q(r) pseudized with  8 coefficients,  rinner =    0.950   0.950   0.950


     atomic species   valence    mass     pseudopotential
        C              4.00    12.01070     C ( 1.00)
        F              7.00    18.99840     F ( 1.00)

      8 Sym. Ops., with inversion, found ( 4 have fractional translation)



   Cartesian axes

     site n.     atom                  positions (alat units)
         1           C   tau(   1) = (   0.5000000   0.2256478   0.1937169  )
         2           C   tau(   2) = (   0.0000000   1.0227422  -0.1937169  )
         3           C   tau(   3) = (   0.0000000   0.5714467   0.1937169  )
         4           C   tau(   4) = (   0.5000000   1.3685411  -0.1937169  )
         5           F   tau(   5) = (   0.5000000  -0.0095812  -0.6719762  )
         6           F   tau(   6) = (   0.0000000   0.7875132   0.6719762  )
         7           F   tau(   7) = (   0.0000000   0.8066757  -0.6719762  )
         8           F   tau(   8) = (   0.5000000   0.0095812   0.6719762  )

     number of k points=    25  Marzari-Vanderbilt smearing, width (Ry)=  0.0200
                       cart. coord. in units 2pi/alat
        k(    1) = (   0.0000000   0.0000000   0.0000000), wk =   0.0246914
        k(    2) = (   0.0000000   0.0696976   0.0000000), wk =   0.0493827
        k(    3) = (   0.0000000   0.1393952   0.0000000), wk =   0.0493827
        k(    4) = (   0.0000000   0.2090927   0.0000000), wk =   0.0493827
        k(    5) = (   0.0000000   0.2787903   0.0000000), wk =   0.0493827
        k(    6) = (   0.1111111   0.0000000   0.0000000), wk =   0.0493827
        k(    7) = (   0.1111111   0.0696976   0.0000000), wk =   0.0987654
        k(    8) = (   0.1111111   0.1393952   0.0000000), wk =   0.0987654
        k(    9) = (   0.1111111   0.2090927   0.0000000), wk =   0.0987654
        k(   10) = (   0.1111111   0.2787903   0.0000000), wk =   0.0987654
        k(   11) = (   0.2222222   0.0000000   0.0000000), wk =   0.0493827
        k(   12) = (   0.2222222   0.0696976   0.0000000), wk =   0.0987654
        k(   13) = (   0.2222222   0.1393952   0.0000000), wk =   0.0987654
        k(   14) = (   0.2222222   0.2090927   0.0000000), wk =   0.0987654
        k(   15) = (   0.2222222   0.2787903   0.0000000), wk =   0.0987654
        k(   16) = (   0.3333333   0.0000000   0.0000000), wk =   0.0493827
        k(   17) = (   0.3333333   0.0696976   0.0000000), wk =   0.0987654
        k(   18) = (   0.3333333   0.1393952   0.0000000), wk =   0.0987654
        k(   19) = (   0.3333333   0.2090927   0.0000000), wk =   0.0987654
        k(   20) = (   0.3333333   0.2787903   0.0000000), wk =   0.0987654
        k(   21) = (   0.4444444   0.0000000   0.0000000), wk =   0.0493827
        k(   22) = (   0.4444444   0.0696976   0.0000000), wk =   0.0987654
        k(   23) = (   0.4444444   0.1393952   0.0000000), wk =   0.0987654
        k(   24) = (   0.4444444   0.2090927   0.0000000), wk =   0.0987654
        k(   25) = (   0.4444444   0.2787903   0.0000000), wk =   0.0987654

     Dense  grid:  6089901 G-vectors     FFT dimensions: ( 120, 180, 625)

     Estimated max dynamical RAM per process >     233.65 MB

     Estimated total dynamical RAM >      17.11 GB

     Initial potential from superposition of free atoms

     starting charge      43.9998, renormalised to      44.0000

     negative rho (up, down):  2.277E-02 0.000E+00
     Starting wfcs are   32 randomized atomic wfcs

     total cpu time spent up to now is       73.5 secs

     Self-consistent Calculation

     iteration #  1     ecut=  1200.00 Ry     beta= 0.70
     Davidson diagonalization with overlap
     ethr =  1.00E-02,  avg # of iterations =  7.2

     Threshold (ethr) on eigenvalues was too large:
     Diagonalizing with lowered threshold

     Davidson diagonalization with overlap
     ethr =  9.35E-04,  avg # of iterations =  1.2

     negative rho (up, down):  6.143E-03 0.000E+00

     total cpu time spent up to now is      761.2 secs

     total energy              =    -240.09850389 Ry
     estimated scf accuracy    <       0.39600417 Ry

     iteration #  2     ecut=  1200.00 Ry     beta= 0.70
     Davidson diagonalization with overlap
     ethr =  9.00E-04,  avg # of iterations =  4.6

     negative rho (up, down):  3.582E-03 0.000E+00

     total cpu time spent up to now is     1132.0 secs

     total energy              =    -240.12835031 Ry
     estimated scf accuracy    <       0.28935582 Ry

     iteration #  3     ecut=  1200.00 Ry     beta= 0.70
     Davidson diagonalization with overlap
     ethr =  6.58E-04,  avg # of iterations =  2.6

     negative rho (up, down):  5.740E-04 0.000E+00

     total cpu time spent up to now is     1386.8 secs

     total energy              =    -240.24033132 Ry
     estimated scf accuracy    <       0.02978989 Ry

     iteration #  4     ecut=  1200.00 Ry     beta= 0.70
     Davidson diagonalization with overlap
     ethr =  6.77E-05,  avg # of iterations =  3.5

     negative rho (up, down):  1.289E-04 0.000E+00

     total cpu time spent up to now is     1679.7 secs

     total energy              =    -240.24700071 Ry
     estimated scf accuracy    <       0.00096959 Ry

     iteration #  5     ecut=  1200.00 Ry     beta= 0.70
     Davidson diagonalization with overlap
     ethr =  2.20E-06,  avg # of iterations =  6.6

     negative rho (up, down):  5.623E-06 0.000E+00

     total cpu time spent up to now is     2147.2 secs

     total energy              =    -240.24747115 Ry
     estimated scf accuracy    <       0.00005072 Ry

     iteration #  6     ecut=  1200.00 Ry     beta= 0.70
     Davidson diagonalization with overlap
     ethr =  1.15E-07,  avg # of iterations =  3.1

     negative rho (up, down):  4.322E-07 0.000E+00

     total cpu time spent up to now is     2424.5 secs

     total energy              =    -240.24747754 Ry
     estimated scf accuracy    <       0.00000463 Ry

     iteration #  7     ecut=  1200.00 Ry     beta= 0.70
     Davidson diagonalization with overlap
     ethr =  1.05E-08,  avg # of iterations =  2.7

     negative rho (up, down):  3.850E-07 0.000E+00

     total cpu time spent up to now is     2682.2 secs

     total energy              =    -240.24747885 Ry
     estimated scf accuracy    <       0.00000003 Ry

     iteration #  8     ecut=  1200.00 Ry     beta= 0.70
     Davidson diagonalization with overlap
     ethr =  6.71E-11,  avg # of iterations =  4.8

     negative rho (up, down):  3.751E-07 0.000E+00

     total cpu time spent up to now is     3076.0 secs

     total energy              =    -240.24747887 Ry
     estimated scf accuracy    <       0.00000003 Ry

     iteration #  9     ecut=  1200.00 Ry     beta= 0.70
     Davidson diagonalization with overlap
     ethr =  6.71E-11,  avg # of iterations =  2.0

     negative rho (up, down):  3.777E-07 0.000E+00

     total cpu time spent up to now is     3302.1 secs

     End of self-consistent calculation

          k = 0.0000 0.0000 0.0000 (761471 PWs)   bands (ev):

   -28.1834 -27.9021 -26.6494 -26.5318 -18.8096 -15.5400 -13.5841 -11.1231
   -10.3489  -9.9809  -8.6994  -8.2805  -7.6842  -7.5566  -7.3229  -5.4480
    -5.3045  -5.2489  -4.5965  -4.2726  -4.0437  -2.7238   0.8196   3.2720
     3.3855   4.4165

          k = 0.0000 0.0697 0.0000 (761391 PWs)   bands (ev):

   -28.1535 -27.8805 -26.6851 -26.5656 -18.7488 -15.7619 -13.3991 -11.0866
   -10.2358 -10.0143  -8.6503  -8.2937  -7.7774  -7.4624  -7.3375  -5.4950
    -5.3766  -5.3393  -4.6556  -4.2412  -4.0042  -2.7760   0.9618   3.2977
     3.3800   4.6004

          k = 0.0000 0.1394 0.0000 (761305 PWs)   bands (ev):

   -28.0685 -27.8231 -26.7795 -26.6586 -18.5682 -16.2586 -12.9911 -11.0545
   -10.0359  -9.9384  -8.5078  -8.3458  -8.0327  -7.3954  -7.2106  -5.6581
    -5.6040  -5.4308  -4.7835  -4.2398  -3.8947  -2.9158   1.3475   3.3475
     3.3738   4.7156

          k = 0.0000 0.2091 0.0000 (761420 PWs)   bands (ev):

   -27.9447 -27.7578 -26.8919 -26.7860 -18.2731 -16.8304 -12.5129 -11.2093
    -9.8637  -9.5572  -8.4677  -8.4104  -8.2875  -7.5279  -6.8618  -5.9606
    -5.6995  -5.5492  -4.8691  -4.3655  -3.7333  -3.1087   1.8842   3.2350
     3.4993   4.3678

          k = 0.0000 0.2788 0.0000 (761404 PWs)   bands (ev):

   -27.8161 -27.7412 -26.9515 -26.9046 -17.8732 -17.3838 -12.0236 -11.5666
    -9.5039  -9.2692  -8.7695  -8.6741  -8.0186  -7.7469  -6.5172  -6.2335
    -5.7196  -5.6586  -4.8088  -4.5977  -3.5375  -3.3235   2.4630   2.9513
     3.6833   3.9648

          k = 0.1111 0.0000 0.0000 (761497 PWs)   bands (ev):

   -28.0993 -27.8281 -26.6474 -26.5320 -18.6559 -15.3906 -13.5222 -10.9998
   -10.2737 -10.0027  -9.3978  -8.3832  -7.7870  -7.6321  -7.4610  -5.7737
    -5.5924  -5.3187  -4.6936  -4.3840  -4.1911  -3.2725   1.0601   4.0621
     4.1788   4.3921

          k = 0.1111 0.0697 0.0000 (761416 PWs)   bands (ev):

   -28.0706 -27.8074 -26.6807 -26.5636 -18.5957 -15.6174 -13.3350 -10.9754
   -10.1819 -10.0374  -9.3377  -8.4122  -7.8018  -7.7278  -7.3694  -5.8379
    -5.6205  -5.3260  -4.7101  -4.3603  -4.2080  -3.3344   1.1842   4.1711
     4.2298   4.4092

          k = 0.1111 0.1394 0.0000 (761389 PWs)   bands (ev):

   -27.9892 -27.7526 -26.7686 -26.6507 -18.4167 -16.1185 -12.9307 -10.9773
   -10.0644  -9.9566  -9.1583  -8.5071  -7.9702  -7.8472  -7.1310  -5.9310
    -5.6812  -5.4356  -4.7753  -4.2769  -4.2685  -3.4750   1.5309   4.1083
     4.4566   4.6239

          k = 0.1111 0.2091 0.0000 (761252 PWs)   bands (ev):

   -27.8706 -27.6906 -26.8733 -26.7705 -18.1242 -16.6904 -12.4646 -11.1665
    -9.9235  -9.7036  -8.9171  -8.6696  -8.2570  -7.9317  -6.7988  -5.9730
    -5.7352  -5.6712  -4.8508  -4.4408  -4.1165  -3.6220   2.0405   3.8336
     4.5217   4.7151

          k = 0.1111 0.2788 0.0000 (761231 PWs)   bands (ev):

   -27.7474 -27.6753 -26.9281 -26.8827 -17.7274 -17.2413 -11.9880 -11.5357
    -9.6575  -9.5393  -8.8748  -8.8462  -8.2815  -8.0813  -6.4431  -6.1186
    -5.8116  -5.7771  -4.8343  -4.6683  -3.9399  -3.7705   2.6475   3.2845
     4.5858   4.6402

          k = 0.2222 0.0000 0.0000 (761353 PWs)   bands (ev):

   -27.8653 -27.6224 -26.6594 -26.5476 -18.1982 -14.9497 -13.4533 -10.7345
   -10.6579 -10.1878 -10.0748  -8.7788  -8.7616  -7.7477  -7.2012  -6.2214
    -6.2161  -5.6456  -5.2523  -4.6727  -4.2689  -4.2414   1.6435   3.8188
     5.5379   6.0192

          k = 0.2222 0.0697 0.0000 (761328 PWs)   bands (ev):

   -27.8404 -27.6047 -26.6855 -26.5730 -18.1398 -15.1931 -13.2671 -10.7186
   -10.6830 -10.2425  -9.9396  -8.9562  -8.5980  -7.8533  -7.1481  -6.2334
    -6.2028  -5.5604  -5.1965  -4.6693  -4.4079  -4.2377   1.7333   3.9781
     5.5092   6.0432

          k = 0.2222 0.1394 0.0000 (761282 PWs)   bands (ev):

   -27.7699 -27.5583 -26.7546 -26.6434 -17.9660 -15.7065 -12.8968 -10.8388
   -10.6533 -10.3131  -9.6128  -9.1219  -8.4600  -8.1049  -6.9931  -6.2130
    -6.1695  -5.4581  -5.0759  -4.6570  -4.6524  -4.3039   1.9996   4.3740
     5.3214   5.9287

          k = 0.2222 0.2091 0.0000 (761228 PWs)   bands (ev):

   -27.6675 -27.5067 -26.8366 -26.7413 -17.6816 -16.2767 -12.4890 -11.1846
   -10.5383 -10.3095  -9.2781  -9.2296  -8.3731  -8.3553  -6.7452  -6.1438
    -6.1149  -5.5921  -5.0056  -4.8669  -4.5823  -4.3604   2.4320   4.3750
     5.3014   5.9337

          k = 0.2222 0.2788 0.0000 (761244 PWs)   bands (ev):

   -27.5608 -27.4965 -26.8765 -26.8350 -17.2949 -16.8192 -12.0616 -11.6174
   -10.4095 -10.3222  -9.2352  -9.1717  -8.4198  -8.3641  -6.4177  -6.1307
    -6.0407  -5.9103  -5.0140  -4.9863  -4.4675  -4.3917   3.0111   3.6998
     5.7561   6.0252

          k = 0.3333 0.0000 0.0000 (761151 PWs)   bands (ev):

   -27.5348 -27.3323 -26.7299 -26.6165 -17.4468 -14.2394 -13.9473 -11.4990
   -10.9805 -10.2687  -9.8298  -9.3684  -9.3493  -8.0925  -7.0381  -6.5413
    -6.3830  -6.2864  -5.8601  -4.9902  -4.8382  -4.5842   2.3901   4.0393
     5.5443   6.9373

          k = 0.3333 0.0697 0.0000 (761155 PWs)   bands (ev):

   -27.5167 -27.3201 -26.7452 -26.6325 -17.3916 -14.5516 -13.7583 -11.3968
   -11.1608 -10.2992  -9.7618  -9.5417  -9.0659  -8.1950  -6.9617  -6.5905
    -6.3904  -6.1508  -5.7384  -5.1422  -4.8081  -4.5391   2.4519   4.1386
     5.4964   6.7882

          k = 0.3333 0.1394 0.0000 (761213 PWs)   bands (ev):

   -27.4653 -27.2889 -26.7854 -26.6775 -17.2273 -15.0670 -13.5217 -11.5743
   -11.1758 -10.3952  -9.6163  -9.6154  -8.7565  -8.3651  -6.8371  -6.6006
    -6.3600  -5.8797  -5.5119  -5.4172  -4.7340  -4.5367   2.6466   4.3937
     5.3286   6.2917

          k = 0.3333 0.2091 0.0000 (761263 PWs)   bands (ev):

   -27.3907 -27.2570 -26.8306 -26.7418 -16.9577 -15.6167 -13.2549 -12.0567
   -10.9528 -10.5120  -9.6463  -9.5477  -8.5115  -8.4124  -6.7655  -6.4288
    -6.3773  -5.6600  -5.5963  -5.3482  -4.6559  -4.5997   2.9925   4.5319
     5.1444   5.8795

          k = 0.3333 0.2788 0.0000 (761231 PWs)   bands (ev):

   -27.3115 -27.2586 -26.8446 -26.8073 -16.5901 -16.1363 -12.9241 -12.5203
   -10.7705 -10.6301  -9.6438  -9.5946  -8.3760  -8.3627  -6.6616  -6.5075
    -6.1472  -5.8639  -5.4136  -5.3202  -4.6262  -4.6188   3.4919   4.0860
     5.3207   5.5706

          k = 0.4444 0.0000 0.0000 (760974 PWs)   bands (ev):

   -27.1872 -27.0266 -26.9034 -26.7746 -16.4203 -15.1721 -13.2952 -12.1684
   -11.2400 -10.6111  -9.6359  -9.5140  -9.2041  -8.6156  -7.1616  -6.8997
    -6.3602  -6.2214  -6.1202  -5.5730  -4.9440  -4.8758   3.2729   4.3493
     4.7536   5.8828

          k = 0.4444 0.0697 0.0000 (761094 PWs)   bands (ev):

   -27.1789 -27.0236 -26.9051 -26.7797 -16.3706 -15.1392 -13.4906 -12.3771
   -11.1120 -10.5327  -9.6752  -9.6557  -9.0105  -8.6231  -7.0391  -6.7813
    -6.4609  -6.4014  -5.8965  -5.6284  -4.8866  -4.7997   3.3170   4.3717
     4.7518   5.7339

          k = 0.4444 0.1394 0.0000 (761134 PWs)   bands (ev):

   -27.1555 -27.0190 -26.9066 -26.7946 -16.2230 -15.0592 -13.9004 -12.8348
   -10.8814 -10.4464  -9.8642  -9.7407  -8.7137  -8.5585  -6.7860  -6.6670
    -6.5681  -6.4481  -5.6797  -5.6624  -4.7655  -4.6987   3.4583   4.4246
     4.7799   5.4573

          k = 0.4444 0.2091 0.0000 (761172 PWs)   bands (ev):

   -27.1213 -27.0247 -26.8985 -26.8180 -15.9822 -15.0469 -14.2128 -13.3415
   -10.7074 -10.4674  -9.9582  -9.8665  -8.4593  -8.4101  -6.8921  -6.7453
    -6.3590  -6.0783  -5.6421  -5.5431  -4.6784  -4.6756   3.7036   4.3999
     4.9440   5.2477

          k = 0.4444 0.2788 0.0000 (761208 PWs)   bands (ev):

   -27.0829 -27.0478 -26.8764 -26.8470 -15.6610 -15.2996 -14.1384 -13.7991
   -10.6065 -10.5363  -9.9819  -9.9554  -8.3136  -8.3019  -6.9490  -6.8944
    -5.9927  -5.7775  -5.6818  -5.5432  -4.6857  -4.6686   4.0054   4.2552
     5.1342   5.1745

     the Fermi energy is    -0.4823 ev

!    total energy              =    -240.24747887 Ry
     estimated scf accuracy    <          6.0E-10 Ry
     smearing contrib. (-TS)   =      -0.00000000 Ry
     internal energy E=F+TS    =    -240.24747887 Ry

     The total energy is F=E-TS. E is the sum of the following terms:
     one-electron contribution =   -1256.48170822 Ry
     hartree contribution      =     642.01089881 Ry
     xc contribution           =     -51.69334217 Ry
     ewald contribution        =     425.91667271 Ry

     convergence has been achieved in   9 iterations

     negative rho (up, down):  3.777E-07 0.000E+00

     Forces acting on atoms (cartesian axes, Ry/au):

     atom    1 type  1   force =     0.00000000   -0.00003843   -0.00000681
     atom    2 type  1   force =     0.00000000   -0.00003843    0.00000681
     atom    3 type  1   force =     0.00000000    0.00003843   -0.00000681
     atom    4 type  1   force =     0.00000000    0.00003843    0.00000681
     atom    5 type  2   force =     0.00000000   -0.00003044   -0.00001141
     atom    6 type  2   force =     0.00000000   -0.00003044    0.00001141
     atom    7 type  2   force =     0.00000000    0.00003044   -0.00001141
     atom    8 type  2   force =     0.00000000    0.00003044    0.00001141

     Total force =     0.000102     Total SCF correction =     0.000094
     SCF correction compared to forces is large: reduce conv_thr to get better values


     Computing stress (Cartesian axis) and pressure


     negative rho (up, down):  3.777E-07 0.000E+00
          total   stress  (Ry/bohr**3)                   (kbar)     P=       -0.00
  -0.00000026   0.00000000   0.00000000           -0.04        0.00        0.00
   0.00000000   0.00000006   0.00000000            0.00        0.01        0.00
   0.00000000   0.00000000   0.00000017            0.00        0.00        0.02


     Writing all to output data dir ../tmp/fgz.save/

     init_run     :     43.50s CPU     72.74s WALL (       1 calls)
     electrons    :   1857.72s CPU   3230.38s WALL (       1 calls)
     forces       :     33.64s CPU     67.22s WALL (       1 calls)
     stress       :     28.96s CPU     61.01s WALL (       1 calls)

     Called by init_run:
     wfcinit      :     38.43s CPU     67.09s WALL (       1 calls)
     potinit      :      0.54s CPU      0.56s WALL (       1 calls)
     hinit0       :      1.51s CPU      1.52s WALL (       1 calls)

     Called by electrons:
     c_bands      :   1777.29s CPU   3068.46s WALL (      10 calls)
     sum_band     :     74.83s CPU    151.45s WALL (      10 calls)
     v_of_rho     :      1.20s CPU      1.29s WALL (      10 calls)
     newd         :      3.46s CPU      7.21s WALL (      10 calls)
     mix_rho      :      0.54s CPU      0.56s WALL (      10 calls)

     Called by c_bands:
     init_us_2    :      1.92s CPU      2.91s WALL (     575 calls)
     init_us_2:cp :      1.92s CPU      2.91s WALL (     575 calls)
     cegterg      :   1706.11s CPU   2936.14s WALL (     250 calls)

     Called by *egterg:
     cdiaghg      :    164.34s CPU    124.26s WALL (    1181 calls)
     h_psi        :    487.07s CPU   1034.56s WALL (    1231 calls)
     s_psi        :     23.01s CPU     52.74s WALL (    1231 calls)
     g_psi        :      0.60s CPU      0.53s WALL (     956 calls)

     Called by h_psi:
     h_psi:calbec :    245.83s CPU    586.81s WALL (    1231 calls)
     vloc_psi     :    156.35s CPU    178.18s WALL (    1231 calls)
     add_vuspsi   :     84.23s CPU    268.58s WALL (    1231 calls)

     General routines
     calbec       :    337.50s CPU    782.62s WALL (    1606 calls)
     fft          :      1.37s CPU      1.47s WALL (     136 calls)
     ffts         :      0.05s CPU      0.07s WALL (      10 calls)
     fftw         :    160.94s CPU    182.90s WALL (   44376 calls)

     Parallel routines

     PWSCF        :  32m47.07s CPU  57m49.61s WALL


   This run was terminated on:  23:13:45  19Jan2024            

=------------------------------------------------------------------------------=
   JOB DONE.
=------------------------------------------------------------------------------=
