
     Program PWSCF v.7.1 starts on 19Jan2024 at 15:31:47 

     This program is part of the open-source Quantum ESPRESSO suite
     for quantum simulation of materials; please cite
         "P. Giannozzi et al., J. Phys.:Condens. Matter 21 395502 (2009);
         "P. Giannozzi et al., J. Phys.:Condens. Matter 29 465901 (2017);
         "P. Giannozzi et al., J. Chem. Phys. 152 154105 (2020);
          URL http://www.quantum-espresso.org", 
     in publications or presentations arising from this work. More details at
     http://www.quantum-espresso.org/quote

     Parallel version (MPI), running on    75 processors

     MPI processes distributed on     1 nodes
     351029 MiB available memory on the printing compute node when the environment starts

     Reading input from ecut.200.in

     Current dimensions of program PWSCF are:
     Max number of different atomic species (ntypx) = 10
     Max number of k-points (npk) =  40000
     Max angular momentum in pseudopotentials (lmaxx) =  4
     Message from routine setup:
     using ibrav=0 with symmetry is DISCOURAGED, use correct ibrav instead

     R & G space division:  proc/nbgrp/npool/nimage =      75
     Subspace diagonalization in iterative solution of the eigenvalue problem:
     a serial algorithm will be used


     Parallelization info
     --------------------
     sticks:   dense  smooth     PW     G-vecs:    dense   smooth      PW
     Min          33      33      9                 5517     5517     787
     Max          34      34     11                 5542     5542     797
     Sum        2511    2511    683               414417   414417   59419

     Using Slab Decomposition



     bravais-lattice index     =            0
     lattice parameter (alat)  =       4.9702  a.u.
     unit-cell volume          =    1084.4437 (a.u.)^3
     number of atoms/cell      =            8
     number of atomic types    =            2
     number of electrons       =        44.00
     number of Kohn-Sham states=           26
     kinetic-energy cutoff     =     200.0000  Ry
     charge density cutoff     =     800.0000  Ry
     scf convergence threshold =      1.0E-08
     mixing beta               =       0.7000
     number of iterations used =            8  plain     mixing
     Exchange-correlation=  SLA  PW   PBX  PBC
                           (   1   4   3   4   0   0   0)

     celldm(1)=   4.970237  celldm(2)=   0.000000  celldm(3)=   0.000000
     celldm(4)=   0.000000  celldm(5)=   0.000000  celldm(6)=   0.000000

     crystal axes: (cart. coord. in units of alat)
               a(1) = (   1.000000   0.000000   0.000000 )  
               a(2) = (   0.000000   1.594189   0.000000 )  
               a(3) = (   0.000000   0.000000   5.540333 )  

     reciprocal axes: (cart. coord. in units 2 pi/alat)
               b(1) = (  1.000000  0.000000  0.000000 )  
               b(2) = (  0.000000  0.627278  0.000000 )  
               b(3) = (  0.000000  0.000000  0.180495 )  


     PseudoPot. # 1 for C  read from file:
     ../pseudo/c_pbe_v1.2.uspp.F.UPF
     MD5 check sum: d1aef80898a10debaa0f26306b886e00
     Pseudo is Ultrasoft + core correction, Zval =  4.0
     Generated by new atomic code, or converted to UPF format
     Using radial grid of  721 points,  4 beta functions with: 
                l(1) =   0
                l(2) =   0
                l(3) =   1
                l(4) =   1
     Q(r) pseudized with  8 coefficients,  rinner =    1.100   1.100   1.100


     PseudoPot. # 2 for F  read from file:
     ../pseudo/f_pbe_v1.4.uspp.F.UPF
     MD5 check sum: 4c38b6a325caf53ec0e86aed9459de46
     Pseudo is Ultrasoft, Zval =  7.0
     Generated by new atomic code, or converted to UPF format
     Using radial grid of  799 points,  4 beta functions with: 
                l(1) =   0
                l(2) =   0
                l(3) =   1
                l(4) =   1
     Q(r) pseudized with  8 coefficients,  rinner =    0.950   0.950   0.950


     atomic species   valence    mass     pseudopotential
        C              4.00    12.01070     C ( 1.00)
        F              7.00    18.99840     F ( 1.00)

      8 Sym. Ops., with inversion, found ( 4 have fractional translation)



   Cartesian axes

     site n.     atom                  positions (alat units)
         1           C   tau(   1) = (   0.5000000   0.2256478   0.1937169  )
         2           C   tau(   2) = (   0.0000000   1.0227422  -0.1937169  )
         3           C   tau(   3) = (   0.0000000   0.5714467   0.1937169  )
         4           C   tau(   4) = (   0.5000000   1.3685411  -0.1937169  )
         5           F   tau(   5) = (   0.5000000  -0.0095812  -0.6719762  )
         6           F   tau(   6) = (   0.0000000   0.7875132   0.6719762  )
         7           F   tau(   7) = (   0.0000000   0.8066757  -0.6719762  )
         8           F   tau(   8) = (   0.5000000   0.0095812   0.6719762  )

     number of k points=    25  Marzari-Vanderbilt smearing, width (Ry)=  0.0200
                       cart. coord. in units 2pi/alat
        k(    1) = (   0.0000000   0.0000000   0.0000000), wk =   0.0246914
        k(    2) = (   0.0000000   0.0696976   0.0000000), wk =   0.0493827
        k(    3) = (   0.0000000   0.1393952   0.0000000), wk =   0.0493827
        k(    4) = (   0.0000000   0.2090927   0.0000000), wk =   0.0493827
        k(    5) = (   0.0000000   0.2787903   0.0000000), wk =   0.0493827
        k(    6) = (   0.1111111   0.0000000   0.0000000), wk =   0.0493827
        k(    7) = (   0.1111111   0.0696976   0.0000000), wk =   0.0987654
        k(    8) = (   0.1111111   0.1393952   0.0000000), wk =   0.0987654
        k(    9) = (   0.1111111   0.2090927   0.0000000), wk =   0.0987654
        k(   10) = (   0.1111111   0.2787903   0.0000000), wk =   0.0987654
        k(   11) = (   0.2222222   0.0000000   0.0000000), wk =   0.0493827
        k(   12) = (   0.2222222   0.0696976   0.0000000), wk =   0.0987654
        k(   13) = (   0.2222222   0.1393952   0.0000000), wk =   0.0987654
        k(   14) = (   0.2222222   0.2090927   0.0000000), wk =   0.0987654
        k(   15) = (   0.2222222   0.2787903   0.0000000), wk =   0.0987654
        k(   16) = (   0.3333333   0.0000000   0.0000000), wk =   0.0493827
        k(   17) = (   0.3333333   0.0696976   0.0000000), wk =   0.0987654
        k(   18) = (   0.3333333   0.1393952   0.0000000), wk =   0.0987654
        k(   19) = (   0.3333333   0.2090927   0.0000000), wk =   0.0987654
        k(   20) = (   0.3333333   0.2787903   0.0000000), wk =   0.0987654
        k(   21) = (   0.4444444   0.0000000   0.0000000), wk =   0.0493827
        k(   22) = (   0.4444444   0.0696976   0.0000000), wk =   0.0987654
        k(   23) = (   0.4444444   0.1393952   0.0000000), wk =   0.0987654
        k(   24) = (   0.4444444   0.2090927   0.0000000), wk =   0.0987654
        k(   25) = (   0.4444444   0.2787903   0.0000000), wk =   0.0987654

     Dense  grid:   414417 G-vectors     FFT dimensions: (  48,  72, 250)

     Estimated max dynamical RAM per process >      17.04 MB

     Estimated total dynamical RAM >       1.25 GB

     Initial potential from superposition of free atoms

     starting charge      43.9998, renormalised to      44.0000

     negative rho (up, down):  9.075E-05 0.000E+00
     Starting wfcs are   32 randomized atomic wfcs

     total cpu time spent up to now is       57.8 secs

     Self-consistent Calculation

     iteration #  1     ecut=   200.00 Ry     beta= 0.70
     Davidson diagonalization with overlap
     ethr =  1.00E-02,  avg # of iterations =  2.3

     Threshold (ethr) on eigenvalues was too large:
     Diagonalizing with lowered threshold

     Davidson diagonalization with overlap
     ethr =  9.77E-04,  avg # of iterations =  1.0

     negative rho (up, down):  7.827E-05 0.000E+00

     total cpu time spent up to now is      416.8 secs

     total energy              =    -240.14417314 Ry
     estimated scf accuracy    <       0.41878847 Ry

     iteration #  2     ecut=   200.00 Ry     beta= 0.70
     Davidson diagonalization with overlap
     ethr =  9.52E-04,  avg # of iterations =  3.0

     negative rho (up, down):  8.079E-05 0.000E+00

     total cpu time spent up to now is      654.8 secs

     total energy              =    -240.16137238 Ry
     estimated scf accuracy    <       0.29540479 Ry

     iteration #  3     ecut=   200.00 Ry     beta= 0.70
     Davidson diagonalization with overlap
     ethr =  6.71E-04,  avg # of iterations =  2.4

     negative rho (up, down):  8.166E-05 0.000E+00

     total cpu time spent up to now is      866.1 secs

     total energy              =    -240.24166427 Ry
     estimated scf accuracy    <       0.03025539 Ry

     iteration #  4     ecut=   200.00 Ry     beta= 0.70
     Davidson diagonalization with overlap
     ethr =  6.88E-05,  avg # of iterations =  2.3

     negative rho (up, down):  8.294E-05 0.000E+00

     total cpu time spent up to now is     1066.3 secs

     total energy              =    -240.24569252 Ry
     estimated scf accuracy    <       0.00084659 Ry

     iteration #  5     ecut=   200.00 Ry     beta= 0.70
     Davidson diagonalization with overlap
     ethr =  1.92E-06,  avg # of iterations =  6.9

     negative rho (up, down):  8.359E-05 0.000E+00

     total cpu time spent up to now is     1478.0 secs

     total energy              =    -240.24597869 Ry
     estimated scf accuracy    <       0.00004369 Ry

     iteration #  6     ecut=   200.00 Ry     beta= 0.70
     Davidson diagonalization with overlap
     ethr =  9.93E-08,  avg # of iterations =  2.0

     negative rho (up, down):  8.370E-05 0.000E+00

     total cpu time spent up to now is     1673.1 secs

     total energy              =    -240.24598373 Ry
     estimated scf accuracy    <       0.00000281 Ry

     iteration #  7     ecut=   200.00 Ry     beta= 0.70
     Davidson diagonalization with overlap
     ethr =  6.40E-09,  avg # of iterations =  3.2

     negative rho (up, down):  8.371E-05 0.000E+00

     total cpu time spent up to now is     1928.9 secs

     total energy              =    -240.24598481 Ry
     estimated scf accuracy    <       0.00000058 Ry

     iteration #  8     ecut=   200.00 Ry     beta= 0.70
     Davidson diagonalization with overlap
     ethr =  1.31E-09,  avg # of iterations =  2.0

     negative rho (up, down):  8.371E-05 0.000E+00

     total cpu time spent up to now is     2123.2 secs

     End of self-consistent calculation

          k = 0.0000 0.0000 0.0000 ( 51755 PWs)   bands (ev):

   -28.1837 -27.9023 -26.6496 -26.5319 -18.8107 -15.5411 -13.5848 -11.1231
   -10.3488  -9.9807  -8.6993  -8.2803  -7.6839  -7.5566  -7.3227  -5.4478
    -5.3042  -5.2486  -4.5963  -4.2722  -4.0433  -2.7233   0.8195   3.2715
     3.3861   4.4174

          k = 0.0000 0.0697 0.0000 ( 51783 PWs)   bands (ev):

   -28.1538 -27.8807 -26.6853 -26.5657 -18.7500 -15.7630 -13.3998 -11.0866
   -10.2357 -10.0142  -8.6502  -8.2935  -7.7771  -7.4623  -7.3373  -5.4947
    -5.3763  -5.3390  -4.6554  -4.2408  -4.0038  -2.7755   0.9618   3.2973
     3.3805   4.6014

          k = 0.0000 0.1394 0.0000 ( 51762 PWs)   bands (ev):

   -28.0688 -27.8233 -26.7796 -26.6587 -18.5694 -16.2596 -12.9916 -11.0546
   -10.0358  -9.9383  -8.5077  -8.3456  -8.0324  -7.3952  -7.2106  -5.6579
    -5.6037  -5.4305  -4.7833  -4.2394  -3.8943  -2.9153   1.3475   3.3480
     3.3734   5.1162

          k = 0.0000 0.2091 0.0000 ( 51810 PWs)   bands (ev):

   -27.9449 -27.7581 -26.8920 -26.7861 -18.2743 -16.8315 -12.5133 -11.2094
    -9.8636  -9.5571  -8.4675  -8.4102  -8.2874  -7.5277  -6.8617  -5.9604
    -5.6993  -5.5489  -4.8690  -4.3652  -3.7329  -3.1082   1.8842   3.2352
     3.4992   4.3670

          k = 0.0000 0.2788 0.0000 ( 51804 PWs)   bands (ev):

   -27.8163 -27.7414 -26.9516 -26.9047 -17.8743 -17.3849 -12.0239 -11.5668
    -9.5037  -9.2690  -8.7694  -8.6739  -8.0185  -7.7468  -6.5170  -6.2333
    -5.7193  -5.6583  -4.8086  -4.5975  -3.5371  -3.3230   2.4629   2.9513
     3.6835   3.9651

          k = 0.1111 0.0000 0.0000 ( 51751 PWs)   bands (ev):

   -28.0996 -27.8283 -26.6476 -26.5321 -18.6570 -15.3916 -13.5229 -10.9998
   -10.2736 -10.0026  -9.3978  -8.3830  -7.7868  -7.6319  -7.4609  -5.7734
    -5.5922  -5.3184  -4.6934  -4.3837  -4.1907  -3.2721   1.0600   4.0609
     4.1794   4.3919

          k = 0.1111 0.0697 0.0000 ( 51752 PWs)   bands (ev):

   -28.0709 -27.8076 -26.6808 -26.5637 -18.5968 -15.6184 -13.3357 -10.9753
   -10.1818 -10.0373  -9.3377  -8.4120  -7.8017  -7.7275  -7.3693  -5.8376
    -5.6203  -5.3258  -4.7099  -4.3600  -4.2076  -3.3340   1.1842   4.1718
     4.2283   4.4091

          k = 0.1111 0.1394 0.0000 ( 51749 PWs)   bands (ev):

   -27.9895 -27.7528 -26.7687 -26.6508 -18.4178 -16.1196 -12.9313 -10.9773
   -10.0643  -9.9565  -9.1583  -8.5069  -7.9699  -7.8471  -7.1310  -5.9308
    -5.6809  -5.4354  -4.7751  -4.2765  -4.2682  -3.4747   1.5309   4.1088
     4.4566   4.6211

          k = 0.1111 0.2091 0.0000 ( 51767 PWs)   bands (ev):

   -27.8708 -27.6908 -26.8735 -26.7706 -18.1253 -16.6915 -12.4650 -11.1666
    -9.9234  -9.7035  -8.9170  -8.6695  -8.2568  -7.9316  -6.7986  -5.9728
    -5.7349  -5.6710  -4.8506  -4.4405  -4.1162  -3.6216   2.0406   3.8338
     4.5218   4.7146

          k = 0.1111 0.2788 0.0000 ( 51809 PWs)   bands (ev):

   -27.7477 -27.6755 -26.9282 -26.8828 -17.7286 -17.2424 -11.9883 -11.5359
    -9.6574  -9.5392  -8.8747  -8.8460  -8.2814  -8.0812  -6.4429  -6.1184
    -5.8114  -5.7769  -4.8341  -4.6681  -3.9395  -3.7702   2.6476   3.2846
     4.5861   4.6407

          k = 0.2222 0.0000 0.0000 ( 51814 PWs)   bands (ev):

   -27.8656 -27.6226 -26.6595 -26.5477 -18.1993 -14.9507 -13.4541 -10.7346
   -10.6579 -10.1878 -10.0747  -8.7786  -8.7615  -7.7475  -7.2011  -6.2212
    -6.2159  -5.6454  -5.2521  -4.6725  -4.2685  -4.2412   1.6436   3.8187
     5.5387   5.9439

          k = 0.2222 0.0697 0.0000 ( 51748 PWs)   bands (ev):

   -27.8407 -27.6049 -26.6856 -26.5731 -18.1409 -15.1940 -13.2678 -10.7188
   -10.6830 -10.2425  -9.9395  -8.9560  -8.5978  -7.8530  -7.1480  -6.2332
    -6.2027  -5.5602  -5.1963  -4.6690  -4.4076  -4.2374   1.7334   3.9779
     5.5100   5.9852

          k = 0.2222 0.1394 0.0000 ( 51744 PWs)   bands (ev):

   -27.7702 -27.5585 -26.7548 -26.6435 -17.9671 -15.7076 -12.8974 -10.8389
   -10.6534 -10.3131  -9.6127  -9.1218  -8.4598  -8.1047  -6.9930  -6.2128
    -6.1694  -5.4578  -5.0757  -4.6568  -4.6521  -4.3035   1.9997   4.3739
     5.3223   5.9186

          k = 0.2222 0.2091 0.0000 ( 51779 PWs)   bands (ev):

   -27.6677 -27.5069 -26.8367 -26.7414 -17.6827 -16.2778 -12.4895 -11.1848
   -10.5384 -10.3095  -9.2780  -9.2295  -8.3730  -8.3551  -6.7450  -6.1436
    -6.1147  -5.5919  -5.0054  -4.8667  -4.5821  -4.3600   2.4322   4.3752
     5.3018   5.9320

          k = 0.2222 0.2788 0.0000 ( 51852 PWs)   bands (ev):

   -27.5610 -27.4967 -26.8766 -26.8351 -17.2960 -16.8203 -12.0620 -11.6177
   -10.4095 -10.3222  -9.2350  -9.1716  -8.4197  -8.3639  -6.4175  -6.1305
    -6.0405  -5.9101  -5.0138  -4.9861  -4.4672  -4.3913   3.0113   3.7001
     5.7561   6.0248

          k = 0.3333 0.0000 0.0000 ( 51786 PWs)   bands (ev):

   -27.5351 -27.3324 -26.7301 -26.6166 -17.4479 -14.2403 -13.9482 -11.4992
   -10.9808 -10.2687  -9.8296  -9.3682  -9.3491  -8.0922  -7.0379  -6.5413
    -6.3828  -6.2862  -5.8599  -4.9900  -4.8380  -4.5838   2.3903   4.0392
     5.5451   6.9372

          k = 0.3333 0.0697 0.0000 ( 51816 PWs)   bands (ev):

   -27.5169 -27.3203 -26.7454 -26.6326 -17.3927 -14.5526 -13.7591 -11.3970
   -11.1611 -10.2992  -9.7616  -9.5415  -9.0658  -8.1948  -6.9616  -6.5904
    -6.3902  -6.1507  -5.7382  -5.1421  -4.8079  -4.5387   2.4522   4.1384
     5.4972   6.9186

          k = 0.3333 0.1394 0.0000 ( 51814 PWs)   bands (ev):

   -27.4655 -27.2890 -26.7856 -26.6776 -17.2284 -15.0679 -13.5225 -11.5747
   -11.1759 -10.3952  -9.6161  -9.6152  -8.7563  -8.3649  -6.8369  -6.6005
    -6.3598  -5.8795  -5.5117  -5.4170  -4.7338  -4.5363   2.6468   4.3935
     5.3293   6.2909

          k = 0.3333 0.2091 0.0000 ( 51842 PWs)   bands (ev):

   -27.3909 -27.2572 -26.8307 -26.7419 -16.9588 -15.6177 -13.2556 -12.0572
   -10.9529 -10.5120  -9.6462  -9.5476  -8.5113  -8.4122  -6.7654  -6.4286
    -6.3771  -5.6598  -5.5961  -5.3480  -4.6556  -4.5993   2.9928   4.5321
     5.1446   5.8790

          k = 0.3333 0.2788 0.0000 ( 51811 PWs)   bands (ev):

   -27.3118 -27.2588 -26.8448 -26.8074 -16.5912 -16.1374 -12.9248 -12.5208
   -10.7705 -10.6301  -9.6437  -9.5944  -8.3758  -8.3625  -6.6615  -6.5074
    -6.1470  -5.8637  -5.4134  -5.3199  -4.6258  -4.6184   3.4923   4.0865
     5.3204   5.5702

          k = 0.4444 0.0000 0.0000 ( 51824 PWs)   bands (ev):

   -27.1874 -27.0267 -26.9036 -26.7747 -16.4214 -15.1731 -13.2959 -12.1690
   -11.2402 -10.6112  -9.6357  -9.5138  -9.2039  -8.6153  -7.1615  -6.8996
    -6.3600  -6.2212  -6.1201  -5.5728  -4.9438  -4.8755   3.2732   4.3498
     4.7535   5.8828

          k = 0.4444 0.0697 0.0000 ( 51851 PWs)   bands (ev):

   -27.1791 -27.0237 -26.9052 -26.7798 -16.3717 -15.1402 -13.4913 -12.3776
   -11.1122 -10.5328  -9.6750  -9.6555  -9.0103  -8.6229  -7.0390  -6.7812
    -6.4607  -6.4012  -5.8963  -5.6283  -4.8864  -4.7994   3.3173   4.3722
     4.7516   5.7337

          k = 0.4444 0.1394 0.0000 ( 51854 PWs)   bands (ev):

   -27.1557 -27.0192 -26.9068 -26.7948 -16.2240 -15.0602 -13.9011 -12.8354
   -10.8815 -10.4465  -9.8640  -9.7405  -8.7135  -8.5583  -6.7859  -6.6668
    -6.5680  -6.4479  -5.6795  -5.6622  -4.7652  -4.6983   3.4586   4.4251
     4.7795   5.4570

          k = 0.4444 0.2091 0.0000 ( 51809 PWs)   bands (ev):

   -27.1215 -27.0249 -26.8987 -26.8181 -15.9832 -15.0479 -14.2135 -13.3422
   -10.7074 -10.4675  -9.9580  -9.8663  -8.4591  -8.4098  -6.8921  -6.7452
    -6.3588  -6.0781  -5.6419  -5.5429  -4.6780  -4.6753   3.7040   4.4003
     4.9435   5.2472

          k = 0.4444 0.2788 0.0000 ( 51761 PWs)   bands (ev):

   -27.0831 -27.0480 -26.8765 -26.8471 -15.6621 -15.3006 -14.1391 -13.7998
   -10.6066 -10.5363  -9.9817  -9.9552  -8.3133  -8.3017  -6.9490  -6.8943
    -5.9925  -5.7772  -5.6816  -5.5430  -4.6854  -4.6683   4.0058   4.2557
     5.1336   5.1739

     the Fermi energy is    -0.4825 ev

!    total energy              =    -240.24598495 Ry
     estimated scf accuracy    <          6.3E-09 Ry
     smearing contrib. (-TS)   =      -0.00000000 Ry
     internal energy E=F+TS    =    -240.24598495 Ry

     The total energy is F=E-TS. E is the sum of the following terms:
     one-electron contribution =   -1256.47952164 Ry
     hartree contribution      =     642.00987172 Ry
     xc contribution           =     -51.69300773 Ry
     ewald contribution        =     425.91667271 Ry

     convergence has been achieved in   8 iterations

     negative rho (up, down):  8.371E-05 0.000E+00

     Forces acting on atoms (cartesian axes, Ry/au):

     atom    1 type  1   force =     0.00000000   -0.00006892    0.00000441
     atom    2 type  1   force =     0.00000000   -0.00006892   -0.00000441
     atom    3 type  1   force =     0.00000000    0.00006892    0.00000441
     atom    4 type  1   force =     0.00000000    0.00006892   -0.00000441
     atom    5 type  2   force =     0.00000000    0.00000717   -0.00009419
     atom    6 type  2   force =     0.00000000    0.00000717    0.00009419
     atom    7 type  2   force =     0.00000000   -0.00000717   -0.00009419
     atom    8 type  2   force =     0.00000000   -0.00000717    0.00009419

     Total force =     0.000234     Total SCF correction =     0.000391
     SCF correction compared to forces is large: reduce conv_thr to get better values


     Computing stress (Cartesian axis) and pressure


     negative rho (up, down):  8.371E-05 0.000E+00
          total   stress  (Ry/bohr**3)                   (kbar)     P=       -0.25
  -0.00000201   0.00000000   0.00000000           -0.30        0.00        0.00
   0.00000000  -0.00000171   0.00000000            0.00       -0.25        0.00
   0.00000000   0.00000000  -0.00000144            0.00        0.00       -0.21


     Writing all to output data dir ../tmp/fgz.save/

     init_run     :     29.03s CPU     57.39s WALL (       1 calls)
     electrons    :   1132.20s CPU   2065.52s WALL (       1 calls)
     forces       :     26.50s CPU     54.47s WALL (       1 calls)
     stress       :      6.45s CPU     13.63s WALL (       1 calls)

     Called by init_run:
     wfcinit      :     28.51s CPU     56.68s WALL (       1 calls)
     potinit      :      0.03s CPU      0.04s WALL (       1 calls)
     hinit0       :      0.27s CPU      0.28s WALL (       1 calls)

     Called by electrons:
     c_bands      :   1088.27s CPU   1958.63s WALL (       9 calls)
     sum_band     :     42.45s CPU    104.08s WALL (       9 calls)
     v_of_rho     :      0.11s CPU      0.11s WALL (       9 calls)
     newd         :      1.18s CPU      2.53s WALL (       9 calls)
     mix_rho      :      0.04s CPU      0.05s WALL (       9 calls)

     Called by c_bands:
     init_us_2    :      0.05s CPU      0.22s WALL (     525 calls)
     init_us_2:cp :      0.05s CPU      0.22s WALL (     525 calls)
     cegterg      :   1029.56s CPU   1841.31s WALL (     225 calls)

     Called by *egterg:
     cdiaghg      :    105.54s CPU     81.43s WALL (     828 calls)
     h_psi        :    260.73s CPU    642.14s WALL (     878 calls)
     s_psi        :      8.16s CPU     24.41s WALL (     878 calls)
     g_psi        :      0.11s CPU      0.11s WALL (     628 calls)

     Called by h_psi:
     h_psi:calbec :    165.30s CPU    404.40s WALL (     878 calls)
     vloc_psi     :     44.74s CPU     57.18s WALL (     878 calls)
     add_vuspsi   :     50.62s CPU    180.19s WALL (     878 calls)

     General routines
     calbec       :    235.98s CPU    566.18s WALL (    1228 calls)
     fft          :      0.34s CPU      0.35s WALL (     125 calls)
     ffts         :      0.01s CPU      0.01s WALL (       9 calls)
     fftw         :     46.30s CPU     59.43s WALL (   37688 calls)

     Parallel routines

     PWSCF        :  19m55.11s CPU  36m35.11s WALL


   This run was terminated on:  16: 8:22  19Jan2024            

=------------------------------------------------------------------------------=
   JOB DONE.
=------------------------------------------------------------------------------=
