
     Program PWSCF v.7.1 starts on 19Jan2024 at 20:36:16 

     This program is part of the open-source Quantum ESPRESSO suite
     for quantum simulation of materials; please cite
         "P. Giannozzi et al., J. Phys.:Condens. Matter 21 395502 (2009);
         "P. Giannozzi et al., J. Phys.:Condens. Matter 29 465901 (2017);
         "P. Giannozzi et al., J. Chem. Phys. 152 154105 (2020);
          URL http://www.quantum-espresso.org", 
     in publications or presentations arising from this work. More details at
     http://www.quantum-espresso.org/quote

     Parallel version (MPI), running on    75 processors

     MPI processes distributed on     1 nodes
     346942 MiB available memory on the printing compute node when the environment starts

     Reading input from ecut.900.in

     Current dimensions of program PWSCF are:
     Max number of different atomic species (ntypx) = 10
     Max number of k-points (npk) =  40000
     Max angular momentum in pseudopotentials (lmaxx) =  4
     Message from routine setup:
     using ibrav=0 with symmetry is DISCOURAGED, use correct ibrav instead

     R & G space division:  proc/nbgrp/npool/nimage =      75
     Subspace diagonalization in iterative solution of the eigenvalue problem:
     a serial algorithm will be used


     Parallelization info
     --------------------
     sticks:   dense  smooth     PW     G-vecs:    dense   smooth      PW
     Min         150     150     39                52734    52734    7035
     Max         151     151     40                52761    52761    7052
     Sum       11301   11301   2953              3956009  3956009  528037

     Using Slab Decomposition



     bravais-lattice index     =            0
     lattice parameter (alat)  =       4.9702  a.u.
     unit-cell volume          =    1084.4437 (a.u.)^3
     number of atoms/cell      =            8
     number of atomic types    =            2
     number of electrons       =        44.00
     number of Kohn-Sham states=           26
     kinetic-energy cutoff     =     900.0000  Ry
     charge density cutoff     =    3600.0000  Ry
     scf convergence threshold =      1.0E-08
     mixing beta               =       0.7000
     number of iterations used =            8  plain     mixing
     Exchange-correlation=  SLA  PW   PBX  PBC
                           (   1   4   3   4   0   0   0)

     celldm(1)=   4.970237  celldm(2)=   0.000000  celldm(3)=   0.000000
     celldm(4)=   0.000000  celldm(5)=   0.000000  celldm(6)=   0.000000

     crystal axes: (cart. coord. in units of alat)
               a(1) = (   1.000000   0.000000   0.000000 )  
               a(2) = (   0.000000   1.594189   0.000000 )  
               a(3) = (   0.000000   0.000000   5.540333 )  

     reciprocal axes: (cart. coord. in units 2 pi/alat)
               b(1) = (  1.000000  0.000000  0.000000 )  
               b(2) = (  0.000000  0.627278  0.000000 )  
               b(3) = (  0.000000  0.000000  0.180495 )  


     PseudoPot. # 1 for C  read from file:
     ../pseudo/c_pbe_v1.2.uspp.F.UPF
     MD5 check sum: d1aef80898a10debaa0f26306b886e00
     Pseudo is Ultrasoft + core correction, Zval =  4.0
     Generated by new atomic code, or converted to UPF format
     Using radial grid of  721 points,  4 beta functions with: 
                l(1) =   0
                l(2) =   0
                l(3) =   1
                l(4) =   1
     Q(r) pseudized with  8 coefficients,  rinner =    1.100   1.100   1.100


     PseudoPot. # 2 for F  read from file:
     ../pseudo/f_pbe_v1.4.uspp.F.UPF
     MD5 check sum: 4c38b6a325caf53ec0e86aed9459de46
     Pseudo is Ultrasoft, Zval =  7.0
     Generated by new atomic code, or converted to UPF format
     Using radial grid of  799 points,  4 beta functions with: 
                l(1) =   0
                l(2) =   0
                l(3) =   1
                l(4) =   1
     Q(r) pseudized with  8 coefficients,  rinner =    0.950   0.950   0.950


     atomic species   valence    mass     pseudopotential
        C              4.00    12.01070     C ( 1.00)
        F              7.00    18.99840     F ( 1.00)

      8 Sym. Ops., with inversion, found ( 4 have fractional translation)



   Cartesian axes

     site n.     atom                  positions (alat units)
         1           C   tau(   1) = (   0.5000000   0.2256478   0.1937169  )
         2           C   tau(   2) = (   0.0000000   1.0227422  -0.1937169  )
         3           C   tau(   3) = (   0.0000000   0.5714467   0.1937169  )
         4           C   tau(   4) = (   0.5000000   1.3685411  -0.1937169  )
         5           F   tau(   5) = (   0.5000000  -0.0095812  -0.6719762  )
         6           F   tau(   6) = (   0.0000000   0.7875132   0.6719762  )
         7           F   tau(   7) = (   0.0000000   0.8066757  -0.6719762  )
         8           F   tau(   8) = (   0.5000000   0.0095812   0.6719762  )

     number of k points=    25  Marzari-Vanderbilt smearing, width (Ry)=  0.0200
                       cart. coord. in units 2pi/alat
        k(    1) = (   0.0000000   0.0000000   0.0000000), wk =   0.0246914
        k(    2) = (   0.0000000   0.0696976   0.0000000), wk =   0.0493827
        k(    3) = (   0.0000000   0.1393952   0.0000000), wk =   0.0493827
        k(    4) = (   0.0000000   0.2090927   0.0000000), wk =   0.0493827
        k(    5) = (   0.0000000   0.2787903   0.0000000), wk =   0.0493827
        k(    6) = (   0.1111111   0.0000000   0.0000000), wk =   0.0493827
        k(    7) = (   0.1111111   0.0696976   0.0000000), wk =   0.0987654
        k(    8) = (   0.1111111   0.1393952   0.0000000), wk =   0.0987654
        k(    9) = (   0.1111111   0.2090927   0.0000000), wk =   0.0987654
        k(   10) = (   0.1111111   0.2787903   0.0000000), wk =   0.0987654
        k(   11) = (   0.2222222   0.0000000   0.0000000), wk =   0.0493827
        k(   12) = (   0.2222222   0.0696976   0.0000000), wk =   0.0987654
        k(   13) = (   0.2222222   0.1393952   0.0000000), wk =   0.0987654
        k(   14) = (   0.2222222   0.2090927   0.0000000), wk =   0.0987654
        k(   15) = (   0.2222222   0.2787903   0.0000000), wk =   0.0987654
        k(   16) = (   0.3333333   0.0000000   0.0000000), wk =   0.0493827
        k(   17) = (   0.3333333   0.0696976   0.0000000), wk =   0.0987654
        k(   18) = (   0.3333333   0.1393952   0.0000000), wk =   0.0987654
        k(   19) = (   0.3333333   0.2090927   0.0000000), wk =   0.0987654
        k(   20) = (   0.3333333   0.2787903   0.0000000), wk =   0.0987654
        k(   21) = (   0.4444444   0.0000000   0.0000000), wk =   0.0493827
        k(   22) = (   0.4444444   0.0696976   0.0000000), wk =   0.0987654
        k(   23) = (   0.4444444   0.1393952   0.0000000), wk =   0.0987654
        k(   24) = (   0.4444444   0.2090927   0.0000000), wk =   0.0987654
        k(   25) = (   0.4444444   0.2787903   0.0000000), wk =   0.0987654

     Dense  grid:  3956009 G-vectors     FFT dimensions: (  96, 160, 540)

     Estimated max dynamical RAM per process >     152.22 MB

     Estimated total dynamical RAM >      11.15 GB

     Initial potential from superposition of free atoms

     starting charge      43.9998, renormalised to      44.0000

     negative rho (up, down):  2.462E-03 0.000E+00
     Starting wfcs are   32 randomized atomic wfcs

     total cpu time spent up to now is       66.8 secs

     Self-consistent Calculation

     iteration #  1     ecut=   900.00 Ry     beta= 0.70
     Davidson diagonalization with overlap
     ethr =  1.00E-02,  avg # of iterations =  5.7

     negative rho (up, down):  5.698E-04 0.000E+00

     total cpu time spent up to now is      481.5 secs

     total energy              =    -240.08459927 Ry
     estimated scf accuracy    <       0.45021719 Ry

     iteration #  2     ecut=   900.00 Ry     beta= 0.70
     Davidson diagonalization with overlap
     ethr =  1.02E-03,  avg # of iterations =  5.0

     negative rho (up, down):  3.488E-04 0.000E+00

     total cpu time spent up to now is      853.7 secs

     total energy              =    -240.11554130 Ry
     estimated scf accuracy    <       0.46915798 Ry

     iteration #  3     ecut=   900.00 Ry     beta= 0.70
     Davidson diagonalization with overlap
     ethr =  1.02E-03,  avg # of iterations =  2.5

     negative rho (up, down):  5.637E-05 0.000E+00

     total cpu time spent up to now is     1089.1 secs

     total energy              =    -240.24445180 Ry
     estimated scf accuracy    <       0.01924490 Ry

     iteration #  4     ecut=   900.00 Ry     beta= 0.70
     Davidson diagonalization with overlap
     ethr =  4.37E-05,  avg # of iterations =  5.0

     negative rho (up, down):  1.107E-05 0.000E+00

     total cpu time spent up to now is     1451.0 secs

     total energy              =    -240.24708906 Ry
     estimated scf accuracy    <       0.00182838 Ry

     iteration #  5     ecut=   900.00 Ry     beta= 0.70
     Davidson diagonalization with overlap
     ethr =  4.16E-06,  avg # of iterations =  4.8

     negative rho (up, down):  1.302E-06 0.000E+00

     total cpu time spent up to now is     1813.8 secs

     total energy              =    -240.24744901 Ry
     estimated scf accuracy    <       0.00003291 Ry

     iteration #  6     ecut=   900.00 Ry     beta= 0.70
     Davidson diagonalization with overlap
     ethr =  7.48E-08,  avg # of iterations =  3.9

     negative rho (up, down):  1.287E-06 0.000E+00

     total cpu time spent up to now is     2135.4 secs

     total energy              =    -240.24746513 Ry
     estimated scf accuracy    <       0.00002377 Ry

     iteration #  7     ecut=   900.00 Ry     beta= 0.70
     Davidson diagonalization with overlap
     ethr =  5.40E-08,  avg # of iterations =  1.9

     negative rho (up, down):  1.318E-06 0.000E+00

     total cpu time spent up to now is     2330.9 secs

     total energy              =    -240.24746632 Ry
     estimated scf accuracy    <       0.00000215 Ry

     iteration #  8     ecut=   900.00 Ry     beta= 0.70
     Davidson diagonalization with overlap
     ethr =  4.90E-09,  avg # of iterations =  3.1

     negative rho (up, down):  1.318E-06 0.000E+00

     total cpu time spent up to now is     2596.4 secs

     total energy              =    -240.24746713 Ry
     estimated scf accuracy    <       0.00000038 Ry

     iteration #  9     ecut=   900.00 Ry     beta= 0.70
     Davidson diagonalization with overlap
     ethr =  8.57E-10,  avg # of iterations =  2.0

     negative rho (up, down):  1.321E-06 0.000E+00

     total cpu time spent up to now is     2798.2 secs

     End of self-consistent calculation

          k = 0.0000 0.0000 0.0000 (494519 PWs)   bands (ev):

   -28.1834 -27.9022 -26.6495 -26.5319 -18.8096 -15.5400 -13.5840 -11.1231
   -10.3488  -9.9809  -8.6994  -8.2805  -7.6842  -7.5567  -7.3229  -5.4481
    -5.3045  -5.2489  -4.5965  -4.2726  -4.0436  -2.7238   0.8196   3.2721
     3.3856   4.4166

          k = 0.0000 0.0697 0.0000 (494591 PWs)   bands (ev):

   -28.1535 -27.8805 -26.6851 -26.5656 -18.7488 -15.7619 -13.3991 -11.0866
   -10.2358 -10.0143  -8.6503  -8.2937  -7.7774  -7.4624  -7.3375  -5.4950
    -5.3766  -5.3393  -4.6557  -4.2412  -4.0042  -2.7759   0.9618   3.2978
     3.3801   4.6005

          k = 0.0000 0.1394 0.0000 (494428 PWs)   bands (ev):

   -28.0685 -27.8231 -26.7795 -26.6586 -18.5682 -16.2585 -12.9911 -11.0545
   -10.0359  -9.9384  -8.5078  -8.3458  -8.0327  -7.3954  -7.2107  -5.6582
    -5.6040  -5.4308  -4.7835  -4.2398  -3.8947  -2.9158   1.3475   3.3476
     3.3738   5.1160

          k = 0.0000 0.2091 0.0000 (494426 PWs)   bands (ev):

   -27.9447 -27.7579 -26.8919 -26.7860 -18.2731 -16.8304 -12.5129 -11.2093
    -9.8637  -9.5571  -8.4677  -8.4104  -8.2875  -7.5278  -6.8619  -5.9607
    -5.6996  -5.5492  -4.8691  -4.3655  -3.7333  -3.1087   1.8842   3.2351
     3.4994   4.3678

          k = 0.0000 0.2788 0.0000 (494448 PWs)   bands (ev):

   -27.8161 -27.7412 -26.9515 -26.9046 -17.8731 -17.3837 -12.0236 -11.5666
    -9.5039  -9.2692  -8.7695  -8.6741  -8.0186  -7.7469  -6.5172  -6.2336
    -5.7196  -5.6586  -4.8088  -4.5977  -3.5375  -3.3235   2.4630   2.9513
     3.6834   3.9648

          k = 0.1111 0.0000 0.0000 (494493 PWs)   bands (ev):

   -28.0993 -27.8281 -26.6475 -26.5320 -18.6558 -15.3906 -13.5222 -10.9998
   -10.2737 -10.0028  -9.3978  -8.3832  -7.7869  -7.6321  -7.4610  -5.7737
    -5.5924  -5.3187  -4.6937  -4.3840  -4.1911  -3.2725   1.0601   4.0620
     4.1788   4.3921

          k = 0.1111 0.0697 0.0000 (494399 PWs)   bands (ev):

   -28.0706 -27.8074 -26.6807 -26.5636 -18.5956 -15.6173 -13.3350 -10.9754
   -10.1819 -10.0374  -9.3376  -8.4122  -7.8018  -7.7278  -7.3694  -5.8379
    -5.6206  -5.3260  -4.7101  -4.3603  -4.2080  -3.3344   1.1842   4.1712
     4.2298   4.4093

          k = 0.1111 0.1394 0.0000 (494448 PWs)   bands (ev):

   -27.9892 -27.7526 -26.7686 -26.6507 -18.4167 -16.1185 -12.9307 -10.9773
   -10.0644  -9.9565  -9.1582  -8.5071  -7.9702  -7.8472  -7.1311  -5.9310
    -5.6812  -5.4357  -4.7753  -4.2769  -4.2685  -3.4750   1.5310   4.1083
     4.4567   4.6238

          k = 0.1111 0.2091 0.0000 (494500 PWs)   bands (ev):

   -27.8706 -27.6906 -26.8733 -26.7706 -18.1242 -16.6903 -12.4646 -11.1665
    -9.9235  -9.7035  -8.9171  -8.6696  -8.2570  -7.9317  -6.7988  -5.9730
    -5.7352  -5.6712  -4.8508  -4.4407  -4.1165  -3.6219   2.0406   3.8336
     4.5217   4.7151

          k = 0.1111 0.2788 0.0000 (494455 PWs)   bands (ev):

   -27.7474 -27.6753 -26.9281 -26.8828 -17.7274 -17.2413 -11.9880 -11.5357
    -9.6575  -9.5393  -8.8748  -8.8461  -8.2815  -8.0813  -6.4431  -6.1186
    -5.8116  -5.7772  -4.8343  -4.6683  -3.9399  -3.7705   2.6476   3.2845
     4.5858   4.6403

          k = 0.2222 0.0000 0.0000 (494429 PWs)   bands (ev):

   -27.8653 -27.6224 -26.6594 -26.5476 -18.1982 -14.9497 -13.4533 -10.7344
   -10.6579 -10.1878 -10.0748  -8.7788  -8.7615  -7.7477  -7.2012  -6.2215
    -6.2161  -5.6456  -5.2523  -4.6727  -4.2689  -4.2414   1.6436   3.8189
     5.5383   6.0146

          k = 0.2222 0.0697 0.0000 (494400 PWs)   bands (ev):

   -27.8404 -27.6048 -26.6855 -26.5730 -18.1397 -15.1930 -13.2671 -10.7185
   -10.6830 -10.2425  -9.9396  -8.9561  -8.5980  -7.8533  -7.1482  -6.2334
    -6.2028  -5.5605  -5.1965  -4.6693  -4.4079  -4.2377   1.7333   3.9781
     5.5093   6.0398

          k = 0.2222 0.1394 0.0000 (494415 PWs)   bands (ev):

   -27.7700 -27.5583 -26.7547 -26.6434 -17.9660 -15.7065 -12.8967 -10.8388
   -10.6533 -10.3131  -9.6128  -9.1219  -8.4600  -8.1049  -6.9932  -6.2130
    -6.1695  -5.4581  -5.0760  -4.6569  -4.6524  -4.3039   1.9996   4.3740
     5.3215   5.9284

          k = 0.2222 0.2091 0.0000 (494423 PWs)   bands (ev):

   -27.6675 -27.5067 -26.8366 -26.7413 -17.6815 -16.2767 -12.4890 -11.1846
   -10.5383 -10.3095  -9.2781  -9.2296  -8.3731  -8.3553  -6.7452  -6.1439
    -6.1149  -5.5921  -5.0057  -4.8669  -4.5823  -4.3604   2.4321   4.3750
     5.3014   5.9337

          k = 0.2222 0.2788 0.0000 (494546 PWs)   bands (ev):

   -27.5608 -27.4965 -26.8765 -26.8350 -17.2948 -16.8192 -12.0616 -11.6174
   -10.4094 -10.3221  -9.2351  -9.1717  -8.4198  -8.3641  -6.4177  -6.1308
    -6.0408  -5.9104  -5.0140  -4.9863  -4.4675  -4.3917   3.0112   3.6998
     5.7567   6.0253

          k = 0.3333 0.0000 0.0000 (494372 PWs)   bands (ev):

   -27.5348 -27.3323 -26.7300 -26.6165 -17.4467 -14.2393 -13.9473 -11.4989
   -10.9805 -10.2687  -9.8297  -9.3684  -9.3493  -8.0925  -7.0381  -6.5413
    -6.3830  -6.2864  -5.8601  -4.9902  -4.8382  -4.5842   2.3901   4.0394
     5.5444   6.9375

          k = 0.3333 0.0697 0.0000 (494384 PWs)   bands (ev):

   -27.5167 -27.3201 -26.7453 -26.6325 -17.3915 -14.5516 -13.7582 -11.3968
   -11.1608 -10.2992  -9.7618  -9.5417  -9.0659  -8.1950  -6.9618  -6.5905
    -6.3905  -6.1508  -5.7384  -5.1422  -4.8081  -4.5390   2.4520   4.1386
     5.4965   6.7881

          k = 0.3333 0.1394 0.0000 (494429 PWs)   bands (ev):

   -27.4653 -27.2889 -26.7854 -26.6775 -17.2272 -15.0669 -13.5217 -11.5742
   -11.1757 -10.3952  -9.6162  -9.6154  -8.7565  -8.3651  -6.8371  -6.6007
    -6.3600  -5.8797  -5.5119  -5.4172  -4.7340  -4.5367   2.6466   4.3937
     5.3286   6.2918

          k = 0.3333 0.2091 0.0000 (494498 PWs)   bands (ev):

   -27.3907 -27.2571 -26.8306 -26.7418 -16.9577 -15.6166 -13.2549 -12.0566
   -10.9528 -10.5119  -9.6463  -9.5477  -8.5115  -8.4124  -6.7655  -6.4288
    -6.3773  -5.6600  -5.5963  -5.3482  -4.6559  -4.5997   2.9926   4.5319
     5.1445   5.8796

          k = 0.3333 0.2788 0.0000 (494457 PWs)   bands (ev):

   -27.3116 -27.2586 -26.8447 -26.8073 -16.5901 -16.1363 -12.9241 -12.5202
   -10.7705 -10.6301  -9.6438  -9.5946  -8.3760  -8.3627  -6.6616  -6.5075
    -6.1472  -5.8640  -5.4136  -5.3202  -4.6262  -4.6188   3.4920   4.0861
     5.3208   5.5707

          k = 0.4444 0.0000 0.0000 (494394 PWs)   bands (ev):

   -27.1873 -27.0266 -26.9034 -26.7746 -16.4202 -15.1721 -13.2951 -12.1684
   -11.2399 -10.6111  -9.6359  -9.5140  -9.2041  -8.6156  -7.1616  -6.8997
    -6.3602  -6.2214  -6.1202  -5.5730  -4.9440  -4.8758   3.2729   4.3494
     4.7537   5.8828

          k = 0.4444 0.0697 0.0000 (494406 PWs)   bands (ev):

   -27.1789 -27.0236 -26.9051 -26.7797 -16.3706 -15.1391 -13.4905 -12.3770
   -11.1120 -10.5326  -9.6752  -9.6557  -9.0105  -8.6231  -7.0392  -6.7813
    -6.4609  -6.4014  -5.8965  -5.6285  -4.8866  -4.7997   3.3170   4.3718
     4.7519   5.7340

          k = 0.4444 0.1394 0.0000 (494421 PWs)   bands (ev):

   -27.1555 -27.0190 -26.9066 -26.7947 -16.2229 -15.0592 -13.9003 -12.8347
   -10.8814 -10.4464  -9.8642  -9.7407  -8.7137  -8.5585  -6.7860  -6.6670
    -6.5681  -6.4481  -5.6797  -5.6624  -4.7655  -4.6986   3.4583   4.4246
     4.7799   5.4574

          k = 0.4444 0.2091 0.0000 (494504 PWs)   bands (ev):

   -27.1214 -27.0247 -26.8985 -26.8180 -15.9821 -15.0468 -14.2127 -13.3414
   -10.7073 -10.4674  -9.9582  -9.8665  -8.4593  -8.4101  -6.8921  -6.7453
    -6.3590  -6.0783  -5.6421  -5.5431  -4.6784  -4.6756   3.7036   4.3999
     4.9440   5.2478

          k = 0.4444 0.2788 0.0000 (494489 PWs)   bands (ev):

   -27.0829 -27.0478 -26.8764 -26.8470 -15.6610 -15.2996 -14.1383 -13.7991
   -10.6065 -10.5363  -9.9819  -9.9554  -8.3136  -8.3019  -6.9490  -6.8944
    -5.9927  -5.7775  -5.6819  -5.5433  -4.6857  -4.6686   4.0054   4.2553
     5.1342   5.1745

     the Fermi energy is    -0.4822 ev

!    total energy              =    -240.24746719 Ry
     estimated scf accuracy    <          4.8E-09 Ry
     smearing contrib. (-TS)   =      -0.00000000 Ry
     internal energy E=F+TS    =    -240.24746719 Ry

     The total energy is F=E-TS. E is the sum of the following terms:
     one-electron contribution =   -1256.48141049 Ry
     hartree contribution      =     642.01066288 Ry
     xc contribution           =     -51.69339228 Ry
     ewald contribution        =     425.91667271 Ry

     convergence has been achieved in   9 iterations

     negative rho (up, down):  1.321E-06 0.000E+00

     Forces acting on atoms (cartesian axes, Ry/au):

     atom    1 type  1   force =     0.00000000   -0.00003505   -0.00000484
     atom    2 type  1   force =     0.00000000   -0.00003505    0.00000484
     atom    3 type  1   force =     0.00000000    0.00003505   -0.00000484
     atom    4 type  1   force =     0.00000000    0.00003505    0.00000484
     atom    5 type  2   force =     0.00000000   -0.00002760   -0.00002861
     atom    6 type  2   force =     0.00000000   -0.00002760    0.00002861
     atom    7 type  2   force =     0.00000000    0.00002760   -0.00002861
     atom    8 type  2   force =     0.00000000    0.00002760    0.00002861

     Total force =     0.000106     Total SCF correction =     0.000288
     SCF correction compared to forces is large: reduce conv_thr to get better values


     Computing stress (Cartesian axis) and pressure


     negative rho (up, down):  1.321E-06 0.000E+00
          total   stress  (Ry/bohr**3)                   (kbar)     P=        0.03
  -0.00000005   0.00000000   0.00000000           -0.01        0.00        0.00
   0.00000000   0.00000026   0.00000000            0.00        0.04        0.00
   0.00000000   0.00000000   0.00000031            0.00        0.00        0.05


     Writing all to output data dir ../tmp/fgz.save/

     init_run     :     38.34s CPU     66.19s WALL (       1 calls)
     electrons    :   1525.55s CPU   2731.89s WALL (       1 calls)
     forces       :     37.79s CPU     69.60s WALL (       1 calls)
     stress       :     26.92s CPU     51.74s WALL (       1 calls)

     Called by init_run:
     wfcinit      :     34.98s CPU     62.44s WALL (       1 calls)
     potinit      :      0.81s CPU      0.82s WALL (       1 calls)
     hinit0       :      0.81s CPU      0.82s WALL (       1 calls)

     Called by electrons:
     c_bands      :   1465.02s CPU   2604.11s WALL (       9 calls)
     sum_band     :     56.72s CPU    121.31s WALL (       9 calls)
     v_of_rho     :      0.70s CPU      0.76s WALL (      10 calls)
     newd         :      2.44s CPU      4.94s WALL (      10 calls)
     mix_rho      :      0.35s CPU      0.40s WALL (       9 calls)

     Called by c_bands:
     init_us_2    :      1.09s CPU      1.61s WALL (     525 calls)
     init_us_2:cp :      1.09s CPU      1.61s WALL (     525 calls)
     cegterg      :   1405.80s CPU   2489.15s WALL (     225 calls)

     Called by *egterg:
     cdiaghg      :    144.93s CPU    111.65s WALL (    1072 calls)
     h_psi        :    375.07s CPU    864.08s WALL (    1097 calls)
     s_psi        :     15.64s CPU     37.56s WALL (    1097 calls)
     g_psi        :      0.36s CPU      0.23s WALL (     847 calls)

     Called by h_psi:
     h_psi:calbec :    200.91s CPU    500.45s WALL (    1097 calls)
     vloc_psi     :    103.75s CPU    124.10s WALL (    1097 calls)
     add_vuspsi   :     69.97s CPU    237.98s WALL (    1097 calls)

     General routines
     calbec       :    292.15s CPU    684.05s WALL (    1447 calls)
     fft          :      1.05s CPU      1.11s WALL (     135 calls)
     ffts         :      0.04s CPU      0.04s WALL (       9 calls)
     fftw         :    110.57s CPU    130.69s WALL (   39004 calls)

     Parallel routines

     PWSCF        :  27m11.38s CPU  48m56.54s WALL


   This run was terminated on:  21:25:13  19Jan2024            

=------------------------------------------------------------------------------=
   JOB DONE.
=------------------------------------------------------------------------------=
