
     Program PWSCF v.7.1 starts on 20Jan2024 at  0:11:31 

     This program is part of the open-source Quantum ESPRESSO suite
     for quantum simulation of materials; please cite
         "P. Giannozzi et al., J. Phys.:Condens. Matter 21 395502 (2009);
         "P. Giannozzi et al., J. Phys.:Condens. Matter 29 465901 (2017);
         "P. Giannozzi et al., J. Chem. Phys. 152 154105 (2020);
          URL http://www.quantum-espresso.org", 
     in publications or presentations arising from this work. More details at
     http://www.quantum-espresso.org/quote

     Parallel version (MPI), running on    75 processors

     MPI processes distributed on     1 nodes
     341150 MiB available memory on the printing compute node when the environment starts

     Reading input from ecut.1600.in

     Current dimensions of program PWSCF are:
     Max number of different atomic species (ntypx) = 10
     Max number of k-points (npk) =  40000
     Max angular momentum in pseudopotentials (lmaxx) =  4
     Message from routine setup:
     using ibrav=0 with symmetry is DISCOURAGED, use correct ibrav instead

     R & G space division:  proc/nbgrp/npool/nimage =      75
     Subspace diagonalization in iterative solution of the eigenvalue problem:
     a serial algorithm will be used


     Parallelization info
     --------------------
     sticks:   dense  smooth     PW     G-vecs:    dense   smooth      PW
     Min         267     267     69               125005   125005   16413
     Max         268     268     70               125018   125018   16432
     Sum       20055   20055   5195              9375875  9375875 1231383

     Using Slab Decomposition



     bravais-lattice index     =            0
     lattice parameter (alat)  =       4.9702  a.u.
     unit-cell volume          =    1084.4437 (a.u.)^3
     number of atoms/cell      =            8
     number of atomic types    =            2
     number of electrons       =        44.00
     number of Kohn-Sham states=           26
     kinetic-energy cutoff     =    1600.0000  Ry
     charge density cutoff     =    6400.0000  Ry
     scf convergence threshold =      1.0E-08
     mixing beta               =       0.7000
     number of iterations used =            8  plain     mixing
     Exchange-correlation=  SLA  PW   PBX  PBC
                           (   1   4   3   4   0   0   0)

     celldm(1)=   4.970237  celldm(2)=   0.000000  celldm(3)=   0.000000
     celldm(4)=   0.000000  celldm(5)=   0.000000  celldm(6)=   0.000000

     crystal axes: (cart. coord. in units of alat)
               a(1) = (   1.000000   0.000000   0.000000 )  
               a(2) = (   0.000000   1.594189   0.000000 )  
               a(3) = (   0.000000   0.000000   5.540333 )  

     reciprocal axes: (cart. coord. in units 2 pi/alat)
               b(1) = (  1.000000  0.000000  0.000000 )  
               b(2) = (  0.000000  0.627278  0.000000 )  
               b(3) = (  0.000000  0.000000  0.180495 )  


     PseudoPot. # 1 for C  read from file:
     ../pseudo/c_pbe_v1.2.uspp.F.UPF
     MD5 check sum: d1aef80898a10debaa0f26306b886e00
     Pseudo is Ultrasoft + core correction, Zval =  4.0
     Generated by new atomic code, or converted to UPF format
     Using radial grid of  721 points,  4 beta functions with: 
                l(1) =   0
                l(2) =   0
                l(3) =   1
                l(4) =   1
     Q(r) pseudized with  8 coefficients,  rinner =    1.100   1.100   1.100


     PseudoPot. # 2 for F  read from file:
     ../pseudo/f_pbe_v1.4.uspp.F.UPF
     MD5 check sum: 4c38b6a325caf53ec0e86aed9459de46
     Pseudo is Ultrasoft, Zval =  7.0
     Generated by new atomic code, or converted to UPF format
     Using radial grid of  799 points,  4 beta functions with: 
                l(1) =   0
                l(2) =   0
                l(3) =   1
                l(4) =   1
     Q(r) pseudized with  8 coefficients,  rinner =    0.950   0.950   0.950


     atomic species   valence    mass     pseudopotential
        C              4.00    12.01070     C ( 1.00)
        F              7.00    18.99840     F ( 1.00)

      8 Sym. Ops., with inversion, found ( 4 have fractional translation)



   Cartesian axes

     site n.     atom                  positions (alat units)
         1           C   tau(   1) = (   0.5000000   0.2256478   0.1937169  )
         2           C   tau(   2) = (   0.0000000   1.0227422  -0.1937169  )
         3           C   tau(   3) = (   0.0000000   0.5714467   0.1937169  )
         4           C   tau(   4) = (   0.5000000   1.3685411  -0.1937169  )
         5           F   tau(   5) = (   0.5000000  -0.0095812  -0.6719762  )
         6           F   tau(   6) = (   0.0000000   0.7875132   0.6719762  )
         7           F   tau(   7) = (   0.0000000   0.8066757  -0.6719762  )
         8           F   tau(   8) = (   0.5000000   0.0095812   0.6719762  )

     number of k points=    25  Marzari-Vanderbilt smearing, width (Ry)=  0.0200
                       cart. coord. in units 2pi/alat
        k(    1) = (   0.0000000   0.0000000   0.0000000), wk =   0.0246914
        k(    2) = (   0.0000000   0.0696976   0.0000000), wk =   0.0493827
        k(    3) = (   0.0000000   0.1393952   0.0000000), wk =   0.0493827
        k(    4) = (   0.0000000   0.2090927   0.0000000), wk =   0.0493827
        k(    5) = (   0.0000000   0.2787903   0.0000000), wk =   0.0493827
        k(    6) = (   0.1111111   0.0000000   0.0000000), wk =   0.0493827
        k(    7) = (   0.1111111   0.0696976   0.0000000), wk =   0.0987654
        k(    8) = (   0.1111111   0.1393952   0.0000000), wk =   0.0987654
        k(    9) = (   0.1111111   0.2090927   0.0000000), wk =   0.0987654
        k(   10) = (   0.1111111   0.2787903   0.0000000), wk =   0.0987654
        k(   11) = (   0.2222222   0.0000000   0.0000000), wk =   0.0493827
        k(   12) = (   0.2222222   0.0696976   0.0000000), wk =   0.0987654
        k(   13) = (   0.2222222   0.1393952   0.0000000), wk =   0.0987654
        k(   14) = (   0.2222222   0.2090927   0.0000000), wk =   0.0987654
        k(   15) = (   0.2222222   0.2787903   0.0000000), wk =   0.0987654
        k(   16) = (   0.3333333   0.0000000   0.0000000), wk =   0.0493827
        k(   17) = (   0.3333333   0.0696976   0.0000000), wk =   0.0987654
        k(   18) = (   0.3333333   0.1393952   0.0000000), wk =   0.0987654
        k(   19) = (   0.3333333   0.2090927   0.0000000), wk =   0.0987654
        k(   20) = (   0.3333333   0.2787903   0.0000000), wk =   0.0987654
        k(   21) = (   0.4444444   0.0000000   0.0000000), wk =   0.0493827
        k(   22) = (   0.4444444   0.0696976   0.0000000), wk =   0.0987654
        k(   23) = (   0.4444444   0.1393952   0.0000000), wk =   0.0987654
        k(   24) = (   0.4444444   0.2090927   0.0000000), wk =   0.0987654
        k(   25) = (   0.4444444   0.2787903   0.0000000), wk =   0.0987654

     Dense  grid:  9375875 G-vectors     FFT dimensions: ( 128, 216, 720)

     Estimated max dynamical RAM per process >     356.95 MB

     Estimated total dynamical RAM >      26.14 GB

     Initial potential from superposition of free atoms

     starting charge      43.9998, renormalised to      44.0000

     negative rho (up, down):  5.939E-03 0.000E+00
     Starting wfcs are   32 randomized atomic wfcs

     total cpu time spent up to now is       79.7 secs

     Self-consistent Calculation

     iteration #  1     ecut=  1600.00 Ry     beta= 0.70
     Davidson diagonalization with overlap
     ethr =  1.00E-02,  avg # of iterations =  6.9

     Threshold (ethr) on eigenvalues was too large:
     Diagonalizing with lowered threshold

     Davidson diagonalization with overlap
     ethr =  7.79E-04,  avg # of iterations =  1.8

     negative rho (up, down):  1.496E-03 0.000E+00

     total cpu time spent up to now is      838.1 secs

     total energy              =    -240.07570202 Ry
     estimated scf accuracy    <       0.32430617 Ry

     iteration #  2     ecut=  1600.00 Ry     beta= 0.70
     Davidson diagonalization with overlap
     ethr =  7.37E-04,  avg # of iterations =  4.8

     negative rho (up, down):  8.416E-04 0.000E+00

     total cpu time spent up to now is     1235.5 secs

     total energy              =    -240.10405137 Ry
     estimated scf accuracy    <       0.22382675 Ry

     iteration #  3     ecut=  1600.00 Ry     beta= 0.70
     Davidson diagonalization with overlap
     ethr =  5.09E-04,  avg # of iterations =  3.2

     negative rho (up, down):  5.143E-05 0.000E+00

     total cpu time spent up to now is     1548.9 secs

     total energy              =    -240.23944384 Ry
     estimated scf accuracy    <       0.03195510 Ry

     iteration #  4     ecut=  1600.00 Ry     beta= 0.70
     Davidson diagonalization with overlap
     ethr =  7.26E-05,  avg # of iterations =  2.9

     negative rho (up, down):  2.750E-05 0.000E+00

     total cpu time spent up to now is     1835.6 secs

     total energy              =    -240.24661120 Ry
     estimated scf accuracy    <       0.00102859 Ry

     iteration #  5     ecut=  1600.00 Ry     beta= 0.70
     Davidson diagonalization with overlap
     ethr =  2.34E-06,  avg # of iterations =  6.6

     negative rho (up, down):  1.887E-06 0.000E+00

     total cpu time spent up to now is     2342.4 secs

     total energy              =    -240.24746577 Ry
     estimated scf accuracy    <       0.00005546 Ry

     iteration #  6     ecut=  1600.00 Ry     beta= 0.70
     Davidson diagonalization with overlap
     ethr =  1.26E-07,  avg # of iterations =  2.6

     negative rho (up, down):  8.003E-08 0.000E+00

     total cpu time spent up to now is     2623.7 secs

     total energy              =    -240.24748284 Ry
     estimated scf accuracy    <       0.00000324 Ry

     iteration #  7     ecut=  1600.00 Ry     beta= 0.70
     Davidson diagonalization with overlap
     ethr =  7.35E-09,  avg # of iterations =  2.4

     negative rho (up, down):  7.144E-08 0.000E+00

     total cpu time spent up to now is     2888.6 secs

     total energy              =    -240.24748330 Ry
     estimated scf accuracy    <       0.00000038 Ry

     iteration #  8     ecut=  1600.00 Ry     beta= 0.70
     Davidson diagonalization with overlap
     ethr =  8.67E-10,  avg # of iterations =  2.0

     negative rho (up, down):  7.169E-08 0.000E+00

     total cpu time spent up to now is     3138.3 secs

     End of self-consistent calculation

          k = 0.0000 0.0000 0.0000 (****** PWs)   bands (ev):

   -28.1832 -27.9019 -26.6492 -26.5316 -18.8094 -15.5398 -13.5839 -11.1229
   -10.3487  -9.9807  -8.6992  -8.2803  -7.6840  -7.5564  -7.3226  -5.4478
    -5.3043  -5.2486  -4.5963  -4.2724  -4.0434  -2.7236   0.8197   3.2722
     3.3858   4.4167

          k = 0.0000 0.0697 0.0000 (****** PWs)   bands (ev):

   -28.1533 -27.8803 -26.6849 -26.5654 -18.7486 -15.7617 -13.3989 -11.0864
   -10.2357 -10.0141  -8.6501  -8.2935  -7.7772  -7.4622  -7.3373  -5.4948
    -5.3763  -5.3391  -4.6554  -4.2410  -4.0040  -2.7757   0.9619   3.2979
     3.3802   4.6007

          k = 0.0000 0.1394 0.0000 (****** PWs)   bands (ev):

   -28.0683 -27.8229 -26.7793 -26.6584 -18.5680 -16.2583 -12.9909 -11.0543
   -10.0357  -9.9383  -8.5076  -8.3456  -8.0325  -7.3952  -7.2104  -5.6579
    -5.6037  -5.4305  -4.7833  -4.2396  -3.8945  -2.9156   1.3476   3.3478
     3.3739   4.7162

          k = 0.0000 0.2091 0.0000 (****** PWs)   bands (ev):

   -27.9445 -27.7576 -26.8917 -26.7858 -18.2729 -16.8302 -12.5127 -11.2091
    -9.8635  -9.5570  -8.4675  -8.4102  -8.2873  -7.5276  -6.8616  -5.9604
    -5.6993  -5.5490  -4.8689  -4.3653  -3.7331  -3.1084   1.8843   3.2352
     3.4995   4.3680

          k = 0.0000 0.2788 0.0000 (****** PWs)   bands (ev):

   -27.8159 -27.7410 -26.9513 -26.9044 -17.8729 -17.3835 -12.0234 -11.5664
    -9.5037  -9.2690  -8.7693  -8.6739  -8.0183  -7.7467  -6.5170  -6.2333
    -5.7194  -5.6584  -4.8086  -4.5975  -3.5373  -3.3232   2.4631   2.9515
     3.6835   3.9650

          k = 0.1111 0.0000 0.0000 (****** PWs)   bands (ev):

   -28.0991 -27.8279 -26.6472 -26.5318 -18.6556 -15.3904 -13.5220 -10.9996
   -10.2735 -10.0025  -9.3976  -8.3830  -7.7867  -7.6319  -7.4608  -5.7735
    -5.5922  -5.3184  -4.6934  -4.3838  -4.1909  -3.2722   1.0602   4.0623
     4.1790   4.3922

          k = 0.1111 0.0697 0.0000 (****** PWs)   bands (ev):

   -28.0704 -27.8072 -26.6805 -26.5634 -18.5954 -15.6171 -13.3348 -10.9752
   -10.1817 -10.0372  -9.3374  -8.4120  -7.8016  -7.7276  -7.3692  -5.8377
    -5.6203  -5.3258  -4.7099  -4.3601  -4.2078  -3.3342   1.1843   4.1714
     4.2302   4.4094

          k = 0.1111 0.1394 0.0000 (****** PWs)   bands (ev):

   -27.9890 -27.7524 -26.7684 -26.6505 -18.4165 -16.1183 -12.9305 -10.9771
   -10.0642  -9.9564  -9.1580  -8.5069  -7.9700  -7.8469  -7.1308  -5.9308
    -5.6810  -5.4354  -4.7751  -4.2767  -4.2683  -3.4748   1.5310   4.1085
     4.4568   4.6243

          k = 0.1111 0.2091 0.0000 (****** PWs)   bands (ev):

   -27.8704 -27.6904 -26.8731 -26.7703 -18.1240 -16.6902 -12.4644 -11.1663
    -9.9233  -9.7034  -8.9169  -8.6694  -8.2568  -7.9315  -6.7985  -5.9728
    -5.7350  -5.6710  -4.8506  -4.4405  -4.1163  -3.6217   2.0407   3.8338
     4.5219   4.7156

          k = 0.1111 0.2788 0.0000 (****** PWs)   bands (ev):

   -27.7472 -27.6751 -26.9279 -26.8825 -17.7272 -17.2411 -11.9878 -11.5355
    -9.6573  -9.5391  -8.8746  -8.8459  -8.2813  -8.0811  -6.4429  -6.1184
    -5.8114  -5.7769  -4.8341  -4.6681  -3.9396  -3.7703   2.6477   3.2846
     4.5860   4.6405

          k = 0.2222 0.0000 0.0000 (****** PWs)   bands (ev):

   -27.8651 -27.6222 -26.6592 -26.5474 -18.1980 -14.9495 -13.4531 -10.7342
   -10.6577 -10.1876 -10.0746  -8.7786  -8.7613  -7.7475  -7.2010  -6.2212
    -6.2159  -5.6454  -5.2521  -4.6725  -4.2687  -4.2412   1.6437   3.8190
     5.5382   6.0224

          k = 0.2222 0.0697 0.0000 (****** PWs)   bands (ev):

   -27.8402 -27.6045 -26.6853 -26.5728 -18.1396 -15.1928 -13.2669 -10.7184
   -10.6828 -10.2423  -9.9394  -8.9559  -8.5978  -7.8531  -7.1479  -6.2332
    -6.2026  -5.5602  -5.1963  -4.6690  -4.4077  -4.2375   1.7334   3.9783
     5.5094   6.0456

          k = 0.2222 0.1394 0.0000 (****** PWs)   bands (ev):

   -27.7697 -27.5581 -26.7545 -26.6432 -17.9658 -15.7063 -12.8965 -10.8386
   -10.6531 -10.3129  -9.6126  -9.1217  -8.4598  -8.1048  -6.9929  -6.2128
    -6.1693  -5.4578  -5.0757  -4.6567  -4.6522  -4.3036   1.9997   4.3742
     5.3217   5.9294

          k = 0.2222 0.2091 0.0000 (****** PWs)   bands (ev):

   -27.6673 -27.5065 -26.8364 -26.7411 -17.6814 -16.2765 -12.4887 -11.1844
   -10.5381 -10.3093  -9.2779  -9.2294  -8.3729  -8.3551  -6.7449  -6.1436
    -6.1147  -5.5919  -5.0054  -4.8667  -4.5821  -4.3602   2.4322   4.3752
     5.3016   5.9339

          k = 0.2222 0.2788 0.0000 (****** PWs)   bands (ev):

   -27.5606 -27.4963 -26.8763 -26.8348 -17.2946 -16.8190 -12.0614 -11.6172
   -10.4093 -10.3220  -9.2349  -9.1715  -8.4196  -8.3639  -6.4175  -6.1305
    -6.0405  -5.9101  -5.0138  -4.9861  -4.4673  -4.3914   3.0113   3.7000
     5.7563   6.0253

          k = 0.3333 0.0000 0.0000 (****** PWs)   bands (ev):

   -27.5346 -27.3321 -26.7297 -26.6163 -17.4465 -14.2391 -13.9471 -11.4987
   -10.9803 -10.2685  -9.8296  -9.3682  -9.3491  -8.0923  -7.0379  -6.5411
    -6.3828  -6.2862  -5.8599  -4.9900  -4.8380  -4.5839   2.3902   4.0395
     5.5445   6.9375

          k = 0.3333 0.0697 0.0000 (****** PWs)   bands (ev):

   -27.5165 -27.3199 -26.7450 -26.6323 -17.3914 -14.5514 -13.7580 -11.3966
   -11.1606 -10.2990  -9.7616  -9.5415  -9.0657  -8.1948  -6.9616  -6.5903
    -6.3902  -6.1506  -5.7382  -5.1420  -4.8079  -4.5388   2.4521   4.1387
     5.4967   6.7879

          k = 0.3333 0.1394 0.0000 (****** PWs)   bands (ev):

   -27.4651 -27.2887 -26.7852 -26.6773 -17.2271 -15.0667 -13.5215 -11.5740
   -11.1755 -10.3950  -9.6161  -9.6152  -8.7563  -8.3649  -6.8369  -6.6004
    -6.3598  -5.8794  -5.5117  -5.4169  -4.7338  -4.5365   2.6467   4.3939
     5.3288   6.2919

          k = 0.3333 0.2091 0.0000 (****** PWs)   bands (ev):

   -27.3905 -27.2568 -26.8304 -26.7416 -16.9575 -15.6164 -13.2547 -12.0564
   -10.9526 -10.5118  -9.6461  -9.5475  -8.5113  -8.4122  -6.7653  -6.4286
    -6.3771  -5.6597  -5.5961  -5.3480  -4.6557  -4.5995   2.9927   4.5321
     5.1447   5.8797

          k = 0.3333 0.2788 0.0000 (****** PWs)   bands (ev):

   -27.3113 -27.2584 -26.8444 -26.8071 -16.5899 -16.1361 -12.9239 -12.5200
   -10.7703 -10.6299  -9.6436  -9.5944  -8.3758  -8.3626  -6.6614  -6.5073
    -6.1470  -5.8637  -5.4134  -5.3199  -4.6259  -4.6185   3.4921   4.0862
     5.3209   5.5709

          k = 0.4444 0.0000 0.0000 (****** PWs)   bands (ev):

   -27.1870 -27.0264 -26.9032 -26.7744 -16.4201 -15.1719 -13.2949 -12.1681
   -11.2398 -10.6109  -9.6357  -9.5138  -9.2039  -8.6154  -7.1614  -6.8995
    -6.3600  -6.2212  -6.1200  -5.5728  -4.9438  -4.8756   3.2731   4.3495
     4.7538   5.8830

          k = 0.4444 0.0697 0.0000 (****** PWs)   bands (ev):

   -27.1787 -27.0234 -26.9049 -26.7795 -16.3704 -15.1389 -13.4903 -12.3768
   -11.1118 -10.5325  -9.6750  -9.6555  -9.0103  -8.6229  -7.0390  -6.7811
    -6.4607  -6.4012  -5.8962  -5.6282  -4.8864  -4.7995   3.3171   4.3719
     4.7520   5.7341

          k = 0.4444 0.1394 0.0000 (****** PWs)   bands (ev):

   -27.1553 -27.0188 -26.9064 -26.7945 -16.2227 -15.0590 -13.9001 -12.8346
   -10.8812 -10.4462  -9.8640  -9.7405  -8.7135  -8.5583  -6.7858  -6.6668
    -6.5679  -6.4479  -5.6795  -5.6621  -4.7653  -4.6984   3.4584   4.4248
     4.7800   5.4575

          k = 0.4444 0.2091 0.0000 (****** PWs)   bands (ev):

   -27.1211 -27.0245 -26.8983 -26.8178 -15.9819 -15.0466 -14.2126 -13.3412
   -10.7071 -10.4672  -9.9580  -9.8663  -8.4591  -8.4099  -6.8919  -6.7451
    -6.3588  -6.0781  -5.6419  -5.5429  -4.6781  -4.6754   3.7038   4.4000
     4.9442   5.2479

          k = 0.4444 0.2788 0.0000 (****** PWs)   bands (ev):

   -27.0827 -27.0476 -26.8762 -26.8468 -15.6608 -15.2994 -14.1382 -13.7989
   -10.6063 -10.5361  -9.9817  -9.9552  -8.3134  -8.3017  -6.9488  -6.8942
    -5.9925  -5.7772  -5.6816  -5.5430  -4.6855  -4.6684   4.0055   4.2554
     5.1344   5.1747

     the Fermi energy is    -0.4821 ev

!    total energy              =    -240.24748345 Ry
     estimated scf accuracy    <          7.3E-09 Ry
     smearing contrib. (-TS)   =      -0.00000000 Ry
     internal energy E=F+TS    =    -240.24748345 Ry

     The total energy is F=E-TS. E is the sum of the following terms:
     one-electron contribution =   -1256.48155266 Ry
     hartree contribution      =     642.01062422 Ry
     xc contribution           =     -51.69322772 Ry
     ewald contribution        =     425.91667271 Ry

     convergence has been achieved in   8 iterations

     negative rho (up, down):  7.169E-08 0.000E+00

     Forces acting on atoms (cartesian axes, Ry/au):

     atom    1 type  1   force =     0.00000000   -0.00003950   -0.00004975
     atom    2 type  1   force =     0.00000000   -0.00003950    0.00004975
     atom    3 type  1   force =     0.00000000    0.00003950   -0.00004975
     atom    4 type  1   force =     0.00000000    0.00003950    0.00004975
     atom    5 type  2   force =     0.00000000   -0.00004181    0.00007421
     atom    6 type  2   force =     0.00000000   -0.00004181   -0.00007421
     atom    7 type  2   force =     0.00000000    0.00004181    0.00007421
     atom    8 type  2   force =     0.00000000    0.00004181   -0.00007421

     Total force =     0.000213     Total SCF correction =     0.000119
     SCF correction compared to forces is large: reduce conv_thr to get better values


     Computing stress (Cartesian axis) and pressure


     negative rho (up, down):  7.169E-08 0.000E+00
          total   stress  (Ry/bohr**3)                   (kbar)     P=       -0.08
  -0.00000078   0.00000000   0.00000000           -0.11        0.00        0.00
   0.00000000  -0.00000045   0.00000000            0.00       -0.07        0.00
   0.00000000   0.00000000  -0.00000038            0.00        0.00       -0.06


     Writing all to output data dir ../tmp/fgz.save/

     init_run     :     50.17s CPU     79.22s WALL (       1 calls)
     electrons    :   1811.37s CPU   3060.80s WALL (       1 calls)
     forces       :     37.73s CPU     67.61s WALL (       1 calls)
     stress       :     34.73s CPU     69.03s WALL (       1 calls)

     Called by init_run:
     wfcinit      :     42.53s CPU     70.98s WALL (       1 calls)
     potinit      :      0.91s CPU      0.96s WALL (       1 calls)
     hinit0       :      1.34s CPU      1.36s WALL (       1 calls)

     Called by electrons:
     c_bands      :   1714.68s CPU   2887.17s WALL (       9 calls)
     sum_band     :     90.37s CPU    161.98s WALL (       9 calls)
     v_of_rho     :      1.77s CPU      1.88s WALL (       9 calls)
     newd         :      4.07s CPU      7.75s WALL (       9 calls)
     mix_rho      :      0.44s CPU      0.57s WALL (       9 calls)

     Called by c_bands:
     init_us_2    :      2.95s CPU      4.92s WALL (     525 calls)
     init_us_2:cp :      2.95s CPU      4.92s WALL (     525 calls)
     cegterg      :   1653.68s CPU   2770.35s WALL (     225 calls)

     Called by *egterg:
     cdiaghg      :    141.09s CPU    107.66s WALL (    1031 calls)
     h_psi        :    521.82s CPU   1013.08s WALL (    1081 calls)
     s_psi        :     26.13s CPU     54.77s WALL (    1081 calls)
     g_psi        :      0.90s CPU      0.79s WALL (     831 calls)

     Called by h_psi:
     h_psi:calbec :    218.63s CPU    518.05s WALL (    1081 calls)
     vloc_psi     :    225.89s CPU    255.19s WALL (    1081 calls)
     add_vuspsi   :     76.19s CPU    238.10s WALL (    1081 calls)

     General routines
     calbec       :    313.75s CPU    711.83s WALL (    1431 calls)
     fft          :      2.11s CPU      2.30s WALL (     125 calls)
     ffts         :      0.10s CPU      0.12s WALL (       9 calls)
     fftw         :    215.21s CPU    240.77s WALL (   40654 calls)

     Parallel routines

     PWSCF        :  32m18.64s CPU  55m37.70s WALL


   This run was terminated on:   1: 7: 9  20Jan2024            

=------------------------------------------------------------------------------=
   JOB DONE.
=------------------------------------------------------------------------------=
