
     Program PWSCF v.7.1 starts on 19Jan2024 at 16:50:30 

     This program is part of the open-source Quantum ESPRESSO suite
     for quantum simulation of materials; please cite
         "P. Giannozzi et al., J. Phys.:Condens. Matter 21 395502 (2009);
         "P. Giannozzi et al., J. Phys.:Condens. Matter 29 465901 (2017);
         "P. Giannozzi et al., J. Chem. Phys. 152 154105 (2020);
          URL http://www.quantum-espresso.org", 
     in publications or presentations arising from this work. More details at
     http://www.quantum-espresso.org/quote

     Parallel version (MPI), running on    75 processors

     MPI processes distributed on     1 nodes
     350270 MiB available memory on the printing compute node when the environment starts

     Reading input from ecut.400.in

     Current dimensions of program PWSCF are:
     Max number of different atomic species (ntypx) = 10
     Max number of k-points (npk) =  40000
     Max angular momentum in pseudopotentials (lmaxx) =  4
     Message from routine setup:
     using ibrav=0 with symmetry is DISCOURAGED, use correct ibrav instead

     R & G space division:  proc/nbgrp/npool/nimage =      75
     Subspace diagonalization in iterative solution of the eigenvalue problem:
     a serial algorithm will be used


     Parallelization info
     --------------------
     sticks:   dense  smooth     PW     G-vecs:    dense   smooth      PW
     Min          66      66     17                15608    15608    2137
     Max          67      67     18                15645    15645    2166
     Sum        5019    5019   1341              1172341  1172341  161681

     Using Slab Decomposition



     bravais-lattice index     =            0
     lattice parameter (alat)  =       4.9702  a.u.
     unit-cell volume          =    1084.4437 (a.u.)^3
     number of atoms/cell      =            8
     number of atomic types    =            2
     number of electrons       =        44.00
     number of Kohn-Sham states=           26
     kinetic-energy cutoff     =     400.0000  Ry
     charge density cutoff     =    1600.0000  Ry
     scf convergence threshold =      1.0E-08
     mixing beta               =       0.7000
     number of iterations used =            8  plain     mixing
     Exchange-correlation=  SLA  PW   PBX  PBC
                           (   1   4   3   4   0   0   0)

     celldm(1)=   4.970237  celldm(2)=   0.000000  celldm(3)=   0.000000
     celldm(4)=   0.000000  celldm(5)=   0.000000  celldm(6)=   0.000000

     crystal axes: (cart. coord. in units of alat)
               a(1) = (   1.000000   0.000000   0.000000 )  
               a(2) = (   0.000000   1.594189   0.000000 )  
               a(3) = (   0.000000   0.000000   5.540333 )  

     reciprocal axes: (cart. coord. in units 2 pi/alat)
               b(1) = (  1.000000  0.000000  0.000000 )  
               b(2) = (  0.000000  0.627278  0.000000 )  
               b(3) = (  0.000000  0.000000  0.180495 )  


     PseudoPot. # 1 for C  read from file:
     ../pseudo/c_pbe_v1.2.uspp.F.UPF
     MD5 check sum: d1aef80898a10debaa0f26306b886e00
     Pseudo is Ultrasoft + core correction, Zval =  4.0
     Generated by new atomic code, or converted to UPF format
     Using radial grid of  721 points,  4 beta functions with: 
                l(1) =   0
                l(2) =   0
                l(3) =   1
                l(4) =   1
     Q(r) pseudized with  8 coefficients,  rinner =    1.100   1.100   1.100


     PseudoPot. # 2 for F  read from file:
     ../pseudo/f_pbe_v1.4.uspp.F.UPF
     MD5 check sum: 4c38b6a325caf53ec0e86aed9459de46
     Pseudo is Ultrasoft, Zval =  7.0
     Generated by new atomic code, or converted to UPF format
     Using radial grid of  799 points,  4 beta functions with: 
                l(1) =   0
                l(2) =   0
                l(3) =   1
                l(4) =   1
     Q(r) pseudized with  8 coefficients,  rinner =    0.950   0.950   0.950


     atomic species   valence    mass     pseudopotential
        C              4.00    12.01070     C ( 1.00)
        F              7.00    18.99840     F ( 1.00)

      8 Sym. Ops., with inversion, found ( 4 have fractional translation)



   Cartesian axes

     site n.     atom                  positions (alat units)
         1           C   tau(   1) = (   0.5000000   0.2256478   0.1937169  )
         2           C   tau(   2) = (   0.0000000   1.0227422  -0.1937169  )
         3           C   tau(   3) = (   0.0000000   0.5714467   0.1937169  )
         4           C   tau(   4) = (   0.5000000   1.3685411  -0.1937169  )
         5           F   tau(   5) = (   0.5000000  -0.0095812  -0.6719762  )
         6           F   tau(   6) = (   0.0000000   0.7875132   0.6719762  )
         7           F   tau(   7) = (   0.0000000   0.8066757  -0.6719762  )
         8           F   tau(   8) = (   0.5000000   0.0095812   0.6719762  )

     number of k points=    25  Marzari-Vanderbilt smearing, width (Ry)=  0.0200
                       cart. coord. in units 2pi/alat
        k(    1) = (   0.0000000   0.0000000   0.0000000), wk =   0.0246914
        k(    2) = (   0.0000000   0.0696976   0.0000000), wk =   0.0493827
        k(    3) = (   0.0000000   0.1393952   0.0000000), wk =   0.0493827
        k(    4) = (   0.0000000   0.2090927   0.0000000), wk =   0.0493827
        k(    5) = (   0.0000000   0.2787903   0.0000000), wk =   0.0493827
        k(    6) = (   0.1111111   0.0000000   0.0000000), wk =   0.0493827
        k(    7) = (   0.1111111   0.0696976   0.0000000), wk =   0.0987654
        k(    8) = (   0.1111111   0.1393952   0.0000000), wk =   0.0987654
        k(    9) = (   0.1111111   0.2090927   0.0000000), wk =   0.0987654
        k(   10) = (   0.1111111   0.2787903   0.0000000), wk =   0.0987654
        k(   11) = (   0.2222222   0.0000000   0.0000000), wk =   0.0493827
        k(   12) = (   0.2222222   0.0696976   0.0000000), wk =   0.0987654
        k(   13) = (   0.2222222   0.1393952   0.0000000), wk =   0.0987654
        k(   14) = (   0.2222222   0.2090927   0.0000000), wk =   0.0987654
        k(   15) = (   0.2222222   0.2787903   0.0000000), wk =   0.0987654
        k(   16) = (   0.3333333   0.0000000   0.0000000), wk =   0.0493827
        k(   17) = (   0.3333333   0.0696976   0.0000000), wk =   0.0987654
        k(   18) = (   0.3333333   0.1393952   0.0000000), wk =   0.0987654
        k(   19) = (   0.3333333   0.2090927   0.0000000), wk =   0.0987654
        k(   20) = (   0.3333333   0.2787903   0.0000000), wk =   0.0987654
        k(   21) = (   0.4444444   0.0000000   0.0000000), wk =   0.0493827
        k(   22) = (   0.4444444   0.0696976   0.0000000), wk =   0.0987654
        k(   23) = (   0.4444444   0.1393952   0.0000000), wk =   0.0987654
        k(   24) = (   0.4444444   0.2090927   0.0000000), wk =   0.0987654
        k(   25) = (   0.4444444   0.2787903   0.0000000), wk =   0.0987654

     Dense  grid:  1172341 G-vectors     FFT dimensions: (  64, 108, 360)

     Estimated max dynamical RAM per process >      46.00 MB

     Estimated total dynamical RAM >       3.37 GB

     Initial potential from superposition of free atoms

     starting charge      43.9998, renormalised to      44.0000

     negative rho (up, down):  4.381E-04 0.000E+00
     Starting wfcs are   32 randomized atomic wfcs

     total cpu time spent up to now is       61.3 secs

     Self-consistent Calculation

     iteration #  1     ecut=   400.00 Ry     beta= 0.70
     Davidson diagonalization with overlap
     ethr =  1.00E-02,  avg # of iterations =  2.6

     Threshold (ethr) on eigenvalues was too large:
     Diagonalizing with lowered threshold

     Davidson diagonalization with overlap
     ethr =  9.77E-04,  avg # of iterations =  1.0

     negative rho (up, down):  1.199E-04 0.000E+00

     total cpu time spent up to now is      431.5 secs

     total energy              =    -240.14505102 Ry
     estimated scf accuracy    <       0.41907561 Ry

     iteration #  2     ecut=   400.00 Ry     beta= 0.70
     Davidson diagonalization with overlap
     ethr =  9.52E-04,  avg # of iterations =  3.0

     negative rho (up, down):  6.944E-05 0.000E+00

     total cpu time spent up to now is      687.2 secs

     total energy              =    -240.16248504 Ry
     estimated scf accuracy    <       0.29648629 Ry

     iteration #  3     ecut=   400.00 Ry     beta= 0.70
     Davidson diagonalization with overlap
     ethr =  6.74E-04,  avg # of iterations =  2.4

     negative rho (up, down):  1.571E-05 0.000E+00

     total cpu time spent up to now is      906.9 secs

     total energy              =    -240.24295537 Ry
     estimated scf accuracy    <       0.02997519 Ry

     iteration #  4     ecut=   400.00 Ry     beta= 0.70
     Davidson diagonalization with overlap
     ethr =  6.81E-05,  avg # of iterations =  2.3

     negative rho (up, down):  4.845E-06 0.000E+00

     total cpu time spent up to now is     1109.5 secs

     total energy              =    -240.24694108 Ry
     estimated scf accuracy    <       0.00085073 Ry

     iteration #  5     ecut=   400.00 Ry     beta= 0.70
     Davidson diagonalization with overlap
     ethr =  1.93E-06,  avg # of iterations =  6.7

     negative rho (up, down):  3.151E-06 0.000E+00

     total cpu time spent up to now is     1557.9 secs

     total energy              =    -240.24722816 Ry
     estimated scf accuracy    <       0.00004324 Ry

     iteration #  6     ecut=   400.00 Ry     beta= 0.70
     Davidson diagonalization with overlap
     ethr =  9.83E-08,  avg # of iterations =  2.1

     negative rho (up, down):  3.109E-06 0.000E+00

     total cpu time spent up to now is     1751.6 secs

     total energy              =    -240.24723318 Ry
     estimated scf accuracy    <       0.00000287 Ry

     iteration #  7     ecut=   400.00 Ry     beta= 0.70
     Davidson diagonalization with overlap
     ethr =  6.53E-09,  avg # of iterations =  3.1

     negative rho (up, down):  3.115E-06 0.000E+00

     total cpu time spent up to now is     2013.7 secs

     total energy              =    -240.24723426 Ry
     estimated scf accuracy    <       0.00000057 Ry

     iteration #  8     ecut=   400.00 Ry     beta= 0.70
     Davidson diagonalization with overlap
     ethr =  1.29E-09,  avg # of iterations =  2.0

     negative rho (up, down):  3.119E-06 0.000E+00

     total cpu time spent up to now is     2211.4 secs

     End of self-consistent calculation

          k = 0.0000 0.0000 0.0000 (146455 PWs)   bands (ev):

   -28.1835 -27.9022 -26.6495 -26.5319 -18.8101 -15.5405 -13.5845 -11.1233
   -10.3490  -9.9808  -8.6997  -8.2805  -7.6842  -7.5566  -7.3230  -5.4479
    -5.3044  -5.2488  -4.5964  -4.2728  -4.0437  -2.7240   0.8194   3.2715
     3.3853   4.4162

          k = 0.0000 0.0697 0.0000 (146505 PWs)   bands (ev):

   -28.1536 -27.8805 -26.6852 -26.5656 -18.7493 -15.7624 -13.3995 -11.0868
   -10.2359 -10.0143  -8.6506  -8.2937  -7.7774  -7.4624  -7.3376  -5.4949
    -5.3765  -5.3392  -4.6556  -4.2414  -4.0043  -2.7762   0.9616   3.2972
     3.3797   4.6002

          k = 0.0000 0.1394 0.0000 (146518 PWs)   bands (ev):

   -28.0686 -27.8232 -26.7795 -26.6586 -18.5687 -16.2591 -12.9914 -11.0547
   -10.0359  -9.9385  -8.5081  -8.3458  -8.0327  -7.3955  -7.2106  -5.6581
    -5.6039  -5.4306  -4.7835  -4.2400  -3.8948  -2.9160   1.3473   3.3473
     3.3733   5.1148

          k = 0.0000 0.2091 0.0000 (146452 PWs)   bands (ev):

   -27.9448 -27.7579 -26.8920 -26.7860 -18.2736 -16.8309 -12.5131 -11.2094
    -9.8637  -9.5573  -8.4677  -8.4105  -8.2878  -7.5280  -6.8618  -5.9606
    -5.6995  -5.5491  -4.8691  -4.3656  -3.7334  -3.1088   1.8840   3.2347
     3.4989   4.3675

          k = 0.0000 0.2788 0.0000 (146456 PWs)   bands (ev):

   -27.8162 -27.7413 -26.9515 -26.9046 -17.8737 -17.3843 -12.0238 -11.5668
    -9.5039  -9.2692  -8.7696  -8.6742  -8.0188  -7.7471  -6.5171  -6.2335
    -5.7195  -5.6585  -4.8088  -4.5978  -3.5376  -3.3236   2.4627   2.9510
     3.6829   3.9645

          k = 0.1111 0.0000 0.0000 (146493 PWs)   bands (ev):

   -28.0994 -27.8282 -26.6475 -26.5320 -18.6564 -15.3911 -13.5226 -11.0000
   -10.2738 -10.0027  -9.3981  -8.3833  -7.7871  -7.6322  -7.4610  -5.7736
    -5.5923  -5.3186  -4.6936  -4.3840  -4.1912  -3.2727   1.0599   4.0616
     4.1785   4.3916

          k = 0.1111 0.0697 0.0000 (146452 PWs)   bands (ev):

   -28.0707 -27.8075 -26.6807 -26.5636 -18.5962 -15.6179 -13.3354 -10.9755
   -10.1820 -10.0374  -9.3380  -8.4122  -7.8020  -7.7278  -7.3694  -5.8378
    -5.6204  -5.3259  -4.7100  -4.3603  -4.2081  -3.3346   1.1840   4.1709
     4.2294   4.4088

          k = 0.1111 0.1394 0.0000 (146480 PWs)   bands (ev):

   -27.9893 -27.7527 -26.7686 -26.6507 -18.4172 -16.1190 -12.9311 -10.9775
   -10.0644  -9.9567  -9.1585  -8.5072  -7.9702  -7.8473  -7.1310  -5.9309
    -5.6811  -5.4356  -4.7752  -4.2770  -4.2685  -3.4752   1.5307   4.1080
     4.4562   4.6233

          k = 0.1111 0.2091 0.0000 (146454 PWs)   bands (ev):

   -27.8707 -27.6907 -26.8734 -26.7706 -18.1247 -16.6909 -12.4649 -11.1667
    -9.9235  -9.7037  -8.9173  -8.6697  -8.2571  -7.9319  -6.7987  -5.9729
    -5.7351  -5.6711  -4.8508  -4.4409  -4.1165  -3.6221   2.0403   3.8333
     4.5213   4.7148

          k = 0.1111 0.2788 0.0000 (146458 PWs)   bands (ev):

   -27.7475 -27.6754 -26.9281 -26.8828 -17.7279 -17.2418 -11.9883 -11.5359
    -9.6576  -9.5394  -8.8749  -8.8463  -8.2817  -8.0815  -6.4431  -6.1185
    -5.8115  -5.7771  -4.8343  -4.6684  -3.9399  -3.7706   2.6473   3.2842
     4.5854   4.6400

          k = 0.2222 0.0000 0.0000 (146414 PWs)   bands (ev):

   -27.8654 -27.6225 -26.6594 -26.5477 -18.1987 -14.9502 -13.4537 -10.7348
   -10.6581 -10.1878 -10.0749  -8.7789  -8.7618  -7.7478  -7.2011  -6.2214
    -6.2160  -5.6455  -5.2523  -4.6726  -4.2690  -4.2416   1.6433   3.8185
     5.5377   6.0082

          k = 0.2222 0.0697 0.0000 (146420 PWs)   bands (ev):

   -27.8405 -27.6048 -26.6855 -26.5730 -18.1403 -15.1935 -13.2675 -10.7189
   -10.6832 -10.2426  -9.9397  -8.9563  -8.5981  -7.8533  -7.1481  -6.2333
    -6.2028  -5.5604  -5.1964  -4.6692  -4.4080  -4.2379   1.7331   3.9778
     5.5091   6.0351

          k = 0.2222 0.1394 0.0000 (146475 PWs)   bands (ev):

   -27.7700 -27.5584 -26.7547 -26.6434 -17.9665 -15.7070 -12.8971 -10.8390
   -10.6536 -10.3132  -9.6129  -9.1221  -8.4601  -8.1050  -6.9931  -6.2129
    -6.1695  -5.4580  -5.0759  -4.6570  -4.6524  -4.3040   1.9994   4.3737
     5.3212   5.9274

          k = 0.2222 0.2091 0.0000 (146531 PWs)   bands (ev):

   -27.6676 -27.5068 -26.8366 -26.7413 -17.6821 -16.2772 -12.4893 -11.1848
   -10.5386 -10.3097  -9.2783  -9.2298  -8.3732  -8.3553  -6.7451  -6.1438
    -6.1149  -5.5920  -5.0056  -4.8669  -4.5824  -4.3606   2.4318   4.3748
     5.3010   5.9332

          k = 0.2222 0.2788 0.0000 (146527 PWs)   bands (ev):

   -27.5608 -27.4966 -26.8765 -26.8350 -17.2954 -16.8198 -12.0619 -11.6176
   -10.4097 -10.3224  -9.2353  -9.1718  -8.4199  -8.3642  -6.4177  -6.1307
    -6.0407  -5.9103  -5.0140  -4.9863  -4.4676  -4.3918   3.0109   3.6996
     5.7558   6.0249

          k = 0.3333 0.0000 0.0000 (146582 PWs)   bands (ev):

   -27.5349 -27.3323 -26.7300 -26.6165 -17.4473 -14.2398 -13.9477 -11.4993
   -10.9808 -10.2689  -9.8298  -9.3684  -9.3494  -8.0925  -7.0380  -6.5413
    -6.3829  -6.2863  -5.8600  -4.9902  -4.8382  -4.5842   2.3899   4.0390
     5.5441   6.9370

          k = 0.3333 0.0697 0.0000 (146498 PWs)   bands (ev):

   -27.5167 -27.3202 -26.7453 -26.6325 -17.3921 -14.5521 -13.7587 -11.3972
   -11.1611 -10.2994  -9.7619  -9.5418  -9.0660  -8.1951  -6.9617  -6.5905
    -6.3904  -6.1508  -5.7384  -5.1422  -4.8081  -4.5391   2.4517   4.1382
     5.4962   6.9210

          k = 0.3333 0.1394 0.0000 (146523 PWs)   bands (ev):

   -27.4654 -27.2889 -26.7855 -26.6775 -17.2278 -15.0674 -13.5221 -11.5746
   -11.1760 -10.3954  -9.6164  -9.6155  -8.7566  -8.3652  -6.8371  -6.6006
    -6.3599  -5.8796  -5.5118  -5.4172  -4.7340  -4.5368   2.6464   4.3934
     5.3283   6.2914

          k = 0.3333 0.2091 0.0000 (146523 PWs)   bands (ev):

   -27.3907 -27.2571 -26.8306 -26.7418 -16.9582 -15.6172 -13.2553 -12.0570
   -10.9530 -10.5122  -9.6464  -9.5478  -8.5116  -8.4124  -6.7655  -6.4288
    -6.3773  -5.6600  -5.5962  -5.3482  -4.6559  -4.5998   2.9923   4.5317
     5.1441   5.8792

          k = 0.3333 0.2788 0.0000 (146538 PWs)   bands (ev):

   -27.3116 -27.2586 -26.8447 -26.8073 -16.5906 -16.1368 -12.9245 -12.5206
   -10.7707 -10.6303  -9.6439  -9.5947  -8.3761  -8.3628  -6.6616  -6.5075
    -6.1472  -5.8639  -5.4136  -5.3201  -4.6263  -4.6188   3.4917   4.0858
     5.3203   5.5703

          k = 0.4444 0.0000 0.0000 (146614 PWs)   bands (ev):

   -27.1873 -27.0267 -26.9035 -26.7746 -16.4208 -15.1726 -13.2956 -12.1688
   -11.2403 -10.6114  -9.6359  -9.5141  -9.2042  -8.6156  -7.1615  -6.8997
    -6.3601  -6.2213  -6.1202  -5.5730  -4.9440  -4.8758   3.2727   4.3491
     4.7533   5.8825

          k = 0.4444 0.0697 0.0000 (146558 PWs)   bands (ev):

   -27.1790 -27.0236 -26.9051 -26.7797 -16.3711 -15.1397 -13.4910 -12.3774
   -11.1123 -10.5330  -9.6752  -9.6557  -9.0105  -8.6232  -7.0391  -6.7813
    -6.4609  -6.4013  -5.8964  -5.6284  -4.8866  -4.7998   3.3168   4.3715
     4.7515   5.7336

          k = 0.4444 0.1394 0.0000 (146557 PWs)   bands (ev):

   -27.1556 -27.0191 -26.9066 -26.7947 -16.2235 -15.0597 -13.9008 -12.8352
   -10.8817 -10.4467  -9.8642  -9.7407  -8.7137  -8.5586  -6.7860  -6.6670
    -6.5681  -6.4481  -5.6797  -5.6623  -4.7655  -4.6987   3.4581   4.4244
     4.7795   5.4570

          k = 0.4444 0.2091 0.0000 (146550 PWs)   bands (ev):

   -27.1214 -27.0248 -26.8986 -26.8181 -15.9827 -15.0474 -14.2132 -13.3419
   -10.7076 -10.4677  -9.9582  -9.8665  -8.4594  -8.4101  -6.8921  -6.7453
    -6.3590  -6.0783  -5.6420  -5.5430  -4.6784  -4.6757   3.7034   4.3997
     4.9435   5.2473

          k = 0.4444 0.2788 0.0000 (146577 PWs)   bands (ev):

   -27.0829 -27.0479 -26.8764 -26.8470 -15.6615 -15.3001 -14.1388 -13.7995
   -10.6067 -10.5365  -9.9819  -9.9554  -8.3136  -8.3020  -6.9490  -6.8944
    -5.9927  -5.7774  -5.6817  -5.5432  -4.6858  -4.6687   4.0052   4.2550
     5.1337   5.1740

     the Fermi energy is    -0.4826 ev

!    total energy              =    -240.24723440 Ry
     estimated scf accuracy    <          8.7E-09 Ry
     smearing contrib. (-TS)   =      -0.00000000 Ry
     internal energy E=F+TS    =    -240.24723440 Ry

     The total energy is F=E-TS. E is the sum of the following terms:
     one-electron contribution =   -1256.48178616 Ry
     hartree contribution      =     642.01107469 Ry
     xc contribution           =     -51.69319564 Ry
     ewald contribution        =     425.91667271 Ry

     convergence has been achieved in   8 iterations

     negative rho (up, down):  3.119E-06 0.000E+00

     Forces acting on atoms (cartesian axes, Ry/au):

     atom    1 type  1   force =     0.00000000   -0.00003684   -0.00000147
     atom    2 type  1   force =     0.00000000   -0.00003684    0.00000147
     atom    3 type  1   force =     0.00000000    0.00003684   -0.00000147
     atom    4 type  1   force =     0.00000000    0.00003684    0.00000147
     atom    5 type  2   force =     0.00000000   -0.00000341   -0.00007637
     atom    6 type  2   force =     0.00000000   -0.00000341    0.00007637
     atom    7 type  2   force =     0.00000000    0.00000341   -0.00007637
     atom    8 type  2   force =     0.00000000    0.00000341    0.00007637

     Total force =     0.000170     Total SCF correction =     0.000456
     SCF correction compared to forces is large: reduce conv_thr to get better values


     Computing stress (Cartesian axis) and pressure


     negative rho (up, down):  3.119E-06 0.000E+00
          total   stress  (Ry/bohr**3)                   (kbar)     P=       -0.07
  -0.00000084   0.00000000   0.00000000           -0.12        0.00        0.00
   0.00000000  -0.00000045   0.00000000            0.00       -0.07        0.00
   0.00000000   0.00000000  -0.00000013            0.00        0.00       -0.02


     Writing all to output data dir ../tmp/fgz.save/

     init_run     :     32.20s CPU     60.88s WALL (       1 calls)
     electrons    :   1175.20s CPU   2150.46s WALL (       1 calls)
     forces       :     33.46s CPU     63.25s WALL (       1 calls)
     stress       :      6.29s CPU     14.54s WALL (       1 calls)

     Called by init_run:
     wfcinit      :     31.13s CPU     59.57s WALL (       1 calls)
     potinit      :      0.10s CPU      0.11s WALL (       1 calls)
     hinit0       :      0.53s CPU      0.55s WALL (       1 calls)

     Called by electrons:
     c_bands      :   1129.19s CPU   2040.74s WALL (       9 calls)
     sum_band     :     44.28s CPU    106.19s WALL (       9 calls)
     v_of_rho     :      0.19s CPU      0.20s WALL (       9 calls)
     newd         :      1.31s CPU      2.91s WALL (       9 calls)
     mix_rho      :      0.08s CPU      0.14s WALL (       9 calls)

     Called by c_bands:
     init_us_2    :      0.16s CPU      0.50s WALL (     525 calls)
     init_us_2:cp :      0.16s CPU      0.50s WALL (     525 calls)
     cegterg      :   1067.80s CPU   1922.11s WALL (     225 calls)

     Called by *egterg:
     cdiaghg      :    112.07s CPU     87.49s WALL (     828 calls)
     h_psi        :    267.67s CPU    652.21s WALL (     878 calls)
     s_psi        :     10.11s CPU     28.35s WALL (     878 calls)
     g_psi        :      0.12s CPU      0.18s WALL (     628 calls)

     Called by h_psi:
     h_psi:calbec :    164.84s CPU    407.76s WALL (     878 calls)
     vloc_psi     :     49.83s CPU     61.90s WALL (     878 calls)
     add_vuspsi   :     52.93s CPU    182.41s WALL (     878 calls)

     General routines
     calbec       :    242.27s CPU    578.46s WALL (    1228 calls)
     fft          :      0.60s CPU      0.63s WALL (     125 calls)
     ffts         :      0.03s CPU      0.04s WALL (       9 calls)
     fftw         :     51.67s CPU     63.63s WALL (   37728 calls)

     Parallel routines

     PWSCF        :  20m48.43s CPU  38m17.42s WALL


   This run was terminated on:  17:28:48  19Jan2024            

=------------------------------------------------------------------------------=
   JOB DONE.
=------------------------------------------------------------------------------=
