
     Program PWSCF v.7.1 starts on 17Jan2024 at  4:54:29 

     This program is part of the open-source Quantum ESPRESSO suite
     for quantum simulation of materials; please cite
         "P. Giannozzi et al., J. Phys.:Condens. Matter 21 395502 (2009);
         "P. Giannozzi et al., J. Phys.:Condens. Matter 29 465901 (2017);
         "P. Giannozzi et al., J. Chem. Phys. 152 154105 (2020);
          URL http://www.quantum-espresso.org", 
     in publications or presentations arising from this work. More details at
     http://www.quantum-espresso.org/quote

     Parallel version (MPI), running on    88 processors

     MPI processes distributed on     1 nodes
     351145 MiB available memory on the printing compute node when the environment starts

     Reading input from vc-relax2.in

     Current dimensions of program PWSCF are:
     Max number of different atomic species (ntypx) = 10
     Max number of k-points (npk) =  40000
     Max angular momentum in pseudopotentials (lmaxx) =  4

     File ../tmp/fgz.update deleted, as requested
     Message from routine setup:
     using ibrav=0 with symmetry is DISCOURAGED, use correct ibrav instead

     R & G space division:  proc/nbgrp/npool/nimage =      88
     Subspace diagonalization in iterative solution of the eigenvalue problem:
     a serial algorithm will be used


     Parallelization info
     --------------------
     sticks:   dense  smooth     PW     G-vecs:    dense   smooth      PW
     Min          84      84     22                24308    24308    3286
     Max          85      85     23                24353    24353    3305
     Sum        7471    7471   1969              2141795  2141795  290105

     Using Slab Decomposition



     bravais-lattice index     =            0
     lattice parameter (alat)  =       4.9672  a.u.
     unit-cell volume          =    1078.6661 (a.u.)^3
     number of atoms/cell      =            8
     number of atomic types    =            2
     number of electrons       =        44.00
     number of Kohn-Sham states=           26
     kinetic-energy cutoff     =     600.0000  Ry
     charge density cutoff     =    2400.0000  Ry
     scf convergence threshold =      1.0E-06
     mixing beta               =       0.7000
     number of iterations used =            8  plain     mixing
     energy convergence thresh.=      5.0E-05
     force convergence thresh. =      1.0E-05
     press convergence thresh. =      5.0E-02
     Exchange-correlation=  SLA  PW   PBX  PBC
                           (   1   4   3   4   0   0   0)
     nstep                     =           50


     celldm(1)=   4.967241  celldm(2)=   0.000000  celldm(3)=   0.000000
     celldm(4)=   0.000000  celldm(5)=   0.000000  celldm(6)=   0.000000

     crystal axes: (cart. coord. in units of alat)
               a(1) = (   1.000000   0.000000   0.000000 )  
               a(2) = (   0.000000   1.587609   0.000000 )  
               a(3) = (   0.000000   0.000000   5.543675 )  

     reciprocal axes: (cart. coord. in units 2 pi/alat)
               b(1) = (  1.000000  0.000000  0.000000 )  
               b(2) = (  0.000000  0.629878  0.000000 )  
               b(3) = (  0.000000  0.000000  0.180386 )  


     PseudoPot. # 1 for C  read from file:
     ../pseudo/c_pbe_v1.2.uspp.F.UPF
     MD5 check sum: d1aef80898a10debaa0f26306b886e00
     Pseudo is Ultrasoft + core correction, Zval =  4.0
     Generated by new atomic code, or converted to UPF format
     Using radial grid of  721 points,  4 beta functions with: 
                l(1) =   0
                l(2) =   0
                l(3) =   1
                l(4) =   1
     Q(r) pseudized with  8 coefficients,  rinner =    1.100   1.100   1.100


     PseudoPot. # 2 for F  read from file:
     ../pseudo/f_pbe_v1.4.uspp.F.UPF
     MD5 check sum: 4c38b6a325caf53ec0e86aed9459de46
     Pseudo is Ultrasoft, Zval =  7.0
     Generated by new atomic code, or converted to UPF format
     Using radial grid of  799 points,  4 beta functions with: 
                l(1) =   0
                l(2) =   0
                l(3) =   1
                l(4) =   1
     Q(r) pseudized with  8 coefficients,  rinner =    0.950   0.950   0.950


     atomic species   valence    mass     pseudopotential
        C              4.00    12.01070     C ( 1.00)
        F              7.00    18.99840     F ( 1.00)

      8 Sym. Ops., with inversion, found ( 4 have fractional translation)


                                    s                        frac. trans.

      isym =  1     identity                                     

 cryst.   s( 1) = (     1          0          0      )
                  (     0          1          0      )
                  (     0          0          1      )

 cart.    s( 1) = (  1.0000000  0.0000000  0.0000000 )
                  (  0.0000000  1.0000000  0.0000000 )
                  (  0.0000000  0.0000000  1.0000000 )


      isym =  2     180 deg rotation - cart. axis [0,0,1]        

 cryst.   s( 2) = (    -1          0          0      )    f =(  0.5000000 )
                  (     0         -1          0      )       (  0.5000000 )
                  (     0          0          1      )       (  0.0000000 )

 cart.    s( 2) = ( -1.0000000  0.0000000  0.0000000 )    f =(  0.5000000 )
                  (  0.0000000 -1.0000000  0.0000000 )       (  0.7938046 )
                  (  0.0000000  0.0000000  1.0000000 )       (  0.0000000 )


      isym =  3     180 deg rotation - cart. axis [0,1,0]        

 cryst.   s( 3) = (    -1          0          0      )    f =(  0.5000000 )
                  (     0          1          0      )       ( -0.5000000 )
                  (     0          0         -1      )       (  0.0000000 )

 cart.    s( 3) = ( -1.0000000  0.0000000  0.0000000 )    f =(  0.5000000 )
                  (  0.0000000  1.0000000  0.0000000 )       ( -0.7938046 )
                  (  0.0000000  0.0000000 -1.0000000 )       (  0.0000000 )


      isym =  4     180 deg rotation - cart. axis [1,0,0]        

 cryst.   s( 4) = (     1          0          0      )
                  (     0         -1          0      )
                  (     0          0         -1      )

 cart.    s( 4) = (  1.0000000  0.0000000  0.0000000 )
                  (  0.0000000 -1.0000000  0.0000000 )
                  (  0.0000000  0.0000000 -1.0000000 )


      isym =  5     inversion                                    

 cryst.   s( 5) = (    -1          0          0      )
                  (     0         -1          0      )
                  (     0          0         -1      )

 cart.    s( 5) = ( -1.0000000  0.0000000  0.0000000 )
                  (  0.0000000 -1.0000000  0.0000000 )
                  (  0.0000000  0.0000000 -1.0000000 )


      isym =  6     inv. 180 deg rotation - cart. axis [0,0,1]   

 cryst.   s( 6) = (     1          0          0      )    f =(  0.5000000 )
                  (     0          1          0      )       ( -0.5000000 )
                  (     0          0         -1      )       (  0.0000000 )

 cart.    s( 6) = (  1.0000000  0.0000000  0.0000000 )    f =(  0.5000000 )
                  (  0.0000000  1.0000000  0.0000000 )       ( -0.7938046 )
                  (  0.0000000  0.0000000 -1.0000000 )       (  0.0000000 )


      isym =  7     inv. 180 deg rotation - cart. axis [0,1,0]   

 cryst.   s( 7) = (     1          0          0      )    f =(  0.5000000 )
                  (     0         -1          0      )       (  0.5000000 )
                  (     0          0          1      )       (  0.0000000 )

 cart.    s( 7) = (  1.0000000  0.0000000  0.0000000 )    f =(  0.5000000 )
                  (  0.0000000 -1.0000000  0.0000000 )       (  0.7938046 )
                  (  0.0000000  0.0000000  1.0000000 )       (  0.0000000 )


      isym =  8     inv. 180 deg rotation - cart. axis [1,0,0]   

 cryst.   s( 8) = (    -1          0          0      )
                  (     0          1          0      )
                  (     0          0          1      )

 cart.    s( 8) = ( -1.0000000  0.0000000  0.0000000 )
                  (  0.0000000  1.0000000  0.0000000 )
                  (  0.0000000  0.0000000  1.0000000 )


   Cartesian axes

     site n.     atom                  positions (alat units)
         1           C   tau(   1) = (   0.5000000   0.2236664   0.1966422  )
         2           C   tau(   2) = (   0.0000000   1.0174709  -0.1966422  )
         3           C   tau(   3) = (   0.0000000   0.5701382   0.1966422  )
         4           C   tau(   4) = (   0.5000000   1.3639427  -0.1966422  )
         5           F   tau(   5) = (   0.5000000   0.0000000  -0.6720267  )
         6           F   tau(   6) = (   0.0000000   0.7938046   0.6720267  )
         7           F   tau(   7) = (   0.0000000   0.7938046  -0.6720267  )
         8           F   tau(   8) = (   0.5000000   0.0000000   0.6720267  )

   Crystallographic axes

     site n.     atom                  positions (cryst. coord.)
         1           C   tau(   1) = (  0.5000000  0.1408825  0.0354715  )
         2           C   tau(   2) = (  0.0000000  0.6408825 -0.0354715  )
         3           C   tau(   3) = (  0.0000000  0.3591175  0.0354715  )
         4           C   tau(   4) = (  0.5000000  0.8591175 -0.0354715  )
         5           F   tau(   5) = (  0.5000000  0.0000000 -0.1212240  )
         6           F   tau(   6) = (  0.0000000  0.5000000  0.1212240  )
         7           F   tau(   7) = (  0.0000000  0.5000000 -0.1212240  )
         8           F   tau(   8) = (  0.5000000  0.0000000  0.1212240  )

     number of k points=    25  Marzari-Vanderbilt smearing, width (Ry)=  0.0010
                       cart. coord. in units 2pi/alat
        k(    1) = (   0.0000000   0.0000000   0.0000000), wk =   0.0246914
        k(    2) = (   0.0000000   0.0699864   0.0000000), wk =   0.0493827
        k(    3) = (   0.0000000   0.1399729   0.0000000), wk =   0.0493827
        k(    4) = (   0.0000000   0.2099593   0.0000000), wk =   0.0493827
        k(    5) = (   0.0000000   0.2799458   0.0000000), wk =   0.0493827
        k(    6) = (   0.1111111   0.0000000   0.0000000), wk =   0.0493827
        k(    7) = (   0.1111111   0.0699864   0.0000000), wk =   0.0987654
        k(    8) = (   0.1111111   0.1399729   0.0000000), wk =   0.0987654
        k(    9) = (   0.1111111   0.2099593   0.0000000), wk =   0.0987654
        k(   10) = (   0.1111111   0.2799458   0.0000000), wk =   0.0987654
        k(   11) = (   0.2222222   0.0000000   0.0000000), wk =   0.0493827
        k(   12) = (   0.2222222   0.0699864   0.0000000), wk =   0.0987654
        k(   13) = (   0.2222222   0.1399729   0.0000000), wk =   0.0987654
        k(   14) = (   0.2222222   0.2099593   0.0000000), wk =   0.0987654
        k(   15) = (   0.2222222   0.2799458   0.0000000), wk =   0.0987654
        k(   16) = (   0.3333333   0.0000000   0.0000000), wk =   0.0493827
        k(   17) = (   0.3333333   0.0699864   0.0000000), wk =   0.0987654
        k(   18) = (   0.3333333   0.1399729   0.0000000), wk =   0.0987654
        k(   19) = (   0.3333333   0.2099593   0.0000000), wk =   0.0987654
        k(   20) = (   0.3333333   0.2799458   0.0000000), wk =   0.0987654
        k(   21) = (   0.4444444   0.0000000   0.0000000), wk =   0.0493827
        k(   22) = (   0.4444444   0.0699864   0.0000000), wk =   0.0987654
        k(   23) = (   0.4444444   0.1399729   0.0000000), wk =   0.0987654
        k(   24) = (   0.4444444   0.2099593   0.0000000), wk =   0.0987654
        k(   25) = (   0.4444444   0.2799458   0.0000000), wk =   0.0987654

                       cryst. coord.
        k(    1) = (   0.0000000   0.0000000   0.0000000), wk =   0.0246914
        k(    2) = (   0.0000000   0.1111111   0.0000000), wk =   0.0493827
        k(    3) = (   0.0000000   0.2222222   0.0000000), wk =   0.0493827
        k(    4) = (   0.0000000   0.3333333   0.0000000), wk =   0.0493827
        k(    5) = (   0.0000000   0.4444444   0.0000000), wk =   0.0493827
        k(    6) = (   0.1111111   0.0000000   0.0000000), wk =   0.0493827
        k(    7) = (   0.1111111   0.1111111   0.0000000), wk =   0.0987654
        k(    8) = (   0.1111111   0.2222222   0.0000000), wk =   0.0987654
        k(    9) = (   0.1111111   0.3333333   0.0000000), wk =   0.0987654
        k(   10) = (   0.1111111   0.4444444   0.0000000), wk =   0.0987654
        k(   11) = (   0.2222222   0.0000000   0.0000000), wk =   0.0493827
        k(   12) = (   0.2222222   0.1111111   0.0000000), wk =   0.0987654
        k(   13) = (   0.2222222   0.2222222   0.0000000), wk =   0.0987654
        k(   14) = (   0.2222222   0.3333333   0.0000000), wk =   0.0987654
        k(   15) = (   0.2222222   0.4444444   0.0000000), wk =   0.0987654
        k(   16) = (   0.3333333   0.0000000   0.0000000), wk =   0.0493827
        k(   17) = (   0.3333333   0.1111111   0.0000000), wk =   0.0987654
        k(   18) = (   0.3333333   0.2222222   0.0000000), wk =   0.0987654
        k(   19) = (   0.3333333   0.3333333   0.0000000), wk =   0.0987654
        k(   20) = (   0.3333333   0.4444444   0.0000000), wk =   0.0987654
        k(   21) = (   0.4444444   0.0000000   0.0000000), wk =   0.0493827
        k(   22) = (   0.4444444   0.1111111   0.0000000), wk =   0.0987654
        k(   23) = (   0.4444444   0.2222222   0.0000000), wk =   0.0987654
        k(   24) = (   0.4444444   0.3333333   0.0000000), wk =   0.0987654
        k(   25) = (   0.4444444   0.4444444   0.0000000), wk =   0.0987654

     Dense  grid:  2141795 G-vectors     FFT dimensions: (  80, 128, 432)

     Dynamical RAM for                 wfc:       1.21 MB

     Dynamical RAM for     wfc (w. buffer):      31.38 MB

     Dynamical RAM for           str. fact:       0.74 MB

     Dynamical RAM for           local pot:       0.00 MB

     Dynamical RAM for          nlocal pot:       2.97 MB

     Dynamical RAM for                qrad:       4.49 MB

     Dynamical RAM for          rho,v,vnew:       2.29 MB

     Dynamical RAM for               rhoin:       0.76 MB

     Dynamical RAM for            rho*nmix:       5.94 MB

     Dynamical RAM for           G-vectors:       1.58 MB

     Dynamical RAM for          h,s,v(r/c):       0.12 MB

     Dynamical RAM for          <psi|beta>:       0.03 MB

     Dynamical RAM for                 psi:       2.41 MB

     Dynamical RAM for                hpsi:       2.41 MB

     Dynamical RAM for                spsi:       2.41 MB

     Dynamical RAM for      wfcinit/wfcrot:       2.99 MB

     Dynamical RAM for           addusdens:      17.46 MB

     Dynamical RAM for          addusforce:      19.88 MB

     Dynamical RAM for         addusstress:      18.57 MB

     Estimated static dynamical RAM per process >      47.27 MB

     Estimated max dynamical RAM per process >      73.09 MB

     Estimated total dynamical RAM >       6.28 GB

     Initial potential from superposition of free atoms

     starting charge      43.9998, renormalised to      44.0000

     negative rho (up, down):  1.101E-03 0.000E+00
     Starting wfcs are   32 randomized atomic wfcs

     total cpu time spent up to now is       84.5 secs

     Self-consistent Calculation

     iteration #  1     ecut=   600.00 Ry     beta= 0.70
     Davidson diagonalization with overlap

---- Real-time Memory Report at c_bands before calling an iterative solver
           127 MiB given to the printing process from OS
             0 MiB allocation reported by mallinfo(arena+hblkhd)
        346005 MiB available memory on the node where the printing process lives
------------------
     ethr =  1.00E-02,  avg # of iterations =  3.1

     Threshold (ethr) on eigenvalues was too large:
     Diagonalizing with lowered threshold

     Davidson diagonalization with overlap

---- Real-time Memory Report at c_bands before calling an iterative solver
           140 MiB given to the printing process from OS
             0 MiB allocation reported by mallinfo(arena+hblkhd)
        344470 MiB available memory on the node where the printing process lives
------------------
     ethr =  9.95E-04,  avg # of iterations =  1.0

     negative rho (up, down):  2.928E-04 0.000E+00

     total cpu time spent up to now is      632.5 secs

     total energy              =    -240.13678455 Ry
     estimated scf accuracy    <       0.42543056 Ry

     iteration #  2     ecut=   600.00 Ry     beta= 0.70
     Davidson diagonalization with overlap

---- Real-time Memory Report at c_bands before calling an iterative solver
           147 MiB given to the printing process from OS
             0 MiB allocation reported by mallinfo(arena+hblkhd)
        344222 MiB available memory on the node where the printing process lives
------------------
     ethr =  9.67E-04,  avg # of iterations =  3.1

     negative rho (up, down):  1.673E-04 0.000E+00

     total cpu time spent up to now is      971.9 secs

     total energy              =    -240.15553097 Ry
     estimated scf accuracy    <       0.32237430 Ry

     iteration #  3     ecut=   600.00 Ry     beta= 0.70
     Davidson diagonalization with overlap

---- Real-time Memory Report at c_bands before calling an iterative solver
           148 MiB given to the printing process from OS
             0 MiB allocation reported by mallinfo(arena+hblkhd)
        344153 MiB available memory on the node where the printing process lives
------------------
     ethr =  7.33E-04,  avg # of iterations =  2.3

     negative rho (up, down):  3.022E-05 0.000E+00

     total cpu time spent up to now is     1255.0 secs

     total energy              =    -240.24254949 Ry
     estimated scf accuracy    <       0.02779735 Ry

     iteration #  4     ecut=   600.00 Ry     beta= 0.70
     Davidson diagonalization with overlap

---- Real-time Memory Report at c_bands before calling an iterative solver
           148 MiB given to the printing process from OS
             0 MiB allocation reported by mallinfo(arena+hblkhd)
        344075 MiB available memory on the node where the printing process lives
------------------
     ethr =  6.32E-05,  avg # of iterations =  3.8

     negative rho (up, down):  5.746E-06 0.000E+00

     total cpu time spent up to now is     1613.9 secs

     total energy              =    -240.24612904 Ry
     estimated scf accuracy    <       0.00098479 Ry

     iteration #  5     ecut=   600.00 Ry     beta= 0.70
     Davidson diagonalization with overlap

---- Real-time Memory Report at c_bands before calling an iterative solver
           149 MiB given to the printing process from OS
             0 MiB allocation reported by mallinfo(arena+hblkhd)
        344008 MiB available memory on the node where the printing process lives
------------------
     ethr =  2.24E-06,  avg # of iterations =  6.0

     negative rho (up, down):  5.063E-06 0.000E+00

     total cpu time spent up to now is     2145.4 secs

     total energy              =    -240.24642293 Ry
     estimated scf accuracy    <       0.00002534 Ry

     iteration #  6     ecut=   600.00 Ry     beta= 0.70
     Davidson diagonalization with overlap

---- Real-time Memory Report at c_bands before calling an iterative solver
           150 MiB given to the printing process from OS
             0 MiB allocation reported by mallinfo(arena+hblkhd)
        343640 MiB available memory on the node where the printing process lives
------------------
     ethr =  5.76E-08,  avg # of iterations =  3.0

     negative rho (up, down):  5.207E-06 0.000E+00

     total cpu time spent up to now is     2473.0 secs

     total energy              =    -240.24642524 Ry
     estimated scf accuracy    <       0.00000469 Ry

     iteration #  7     ecut=   600.00 Ry     beta= 0.70
     Davidson diagonalization with overlap

---- Real-time Memory Report at c_bands before calling an iterative solver
           151 MiB given to the printing process from OS
             0 MiB allocation reported by mallinfo(arena+hblkhd)
        343571 MiB available memory on the node where the printing process lives
------------------
     ethr =  1.07E-08,  avg # of iterations =  2.7

     negative rho (up, down):  5.198E-06 0.000E+00

     total cpu time spent up to now is     2779.0 secs

     End of self-consistent calculation

          k = 0.0000 0.0000 0.0000 (267837 PWs)   bands (ev):

   -28.1354 -27.8517 -26.6167 -26.4988 -18.7973 -15.5259 -13.5181 -11.1267
   -10.3284  -9.9351  -8.6433  -8.2510  -7.5923  -7.5390  -7.2637  -5.4091
    -5.2660  -5.1952  -4.5660  -4.2610  -4.0173  -2.6996   0.8362   3.3048
     3.4378   4.4776

     occupation numbers 
     1.0000   1.0000   1.0000   1.0000   1.0000   1.0000   1.0000   1.0000
     1.0000   1.0000   1.0000   1.0000   1.0000   1.0000   1.0000   1.0000
     1.0000   1.0000   1.0000   1.0000   1.0000   1.0000   0.0000   0.0000
     0.0000   0.0000

          k = 0.0000 0.0700 0.0000 (267845 PWs)   bands (ev):

   -28.1033 -27.8268 -26.6564 -26.5355 -18.7352 -15.7382 -13.3490 -11.0800
   -10.2068  -9.9810  -8.5927  -8.2606  -7.6892  -7.4483  -7.2741  -5.4644
    -5.3381  -5.3064  -4.6239  -4.2125  -3.9735  -2.7467   0.9841   3.3319
     3.4334   4.6588

     occupation numbers 
     1.0000   1.0000   1.0000   1.0000   1.0000   1.0000   1.0000   1.0000
     1.0000   1.0000   1.0000   1.0000   1.0000   1.0000   1.0000   1.0000
     1.0000   1.0000   1.0000   1.0000   1.0000   1.0000   0.0000   0.0000
     0.0000   0.0000

          k = 0.0000 0.1400 0.0000 (267799 PWs)   bands (ev):

   -28.0116 -27.7594 -26.7630 -26.6371 -18.5510 -16.2240 -12.9637 -11.0193
   -10.0361  -9.8915  -8.4457  -8.3032  -7.9599  -7.3214  -7.2023  -5.6437
    -5.5937  -5.4115  -4.7454  -4.1836  -3.8542  -2.8751   1.3842   3.4048
     3.4115   5.1674

     occupation numbers 
     1.0000   1.0000   1.0000   1.0000   1.0000   1.0000   1.0000   1.0000
     1.0000   1.0000   1.0000   1.0000   1.0000   1.0000   1.0000   1.0000
     1.0000   1.0000   1.0000   1.0000   1.0000   1.0000   0.0000   0.0000
     0.0000   0.0000

          k = 0.0000 0.2100 0.0000 (267686 PWs)   bands (ev):

   -27.8757 -27.6773 -26.8949 -26.7785 -18.2507 -16.7933 -12.4955 -11.1606
    -9.8810  -9.4966  -8.4130  -8.3603  -8.2183  -7.4440  -6.8623  -5.9653
    -5.7090  -5.5457  -4.8161  -4.2893  -3.6832  -3.0573   1.9377   3.2995
     3.5417   4.4209

     occupation numbers 
     1.0000   1.0000   1.0000   1.0000   1.0000   1.0000   1.0000   1.0000
     1.0000   1.0000   1.0000   1.0000   1.0000   1.0000   1.0000   1.0000
     1.0000   1.0000   1.0000   1.0000   1.0000   1.0000   0.0000   0.0000
     0.0000   0.0000

          k = 0.0000 0.2799 0.0000 (267766 PWs)   bands (ev):

   -27.7308 -27.6474 -26.9696 -26.9145 -17.8446 -17.3497 -12.0018 -11.5307
    -9.5044  -9.2221  -8.7269  -8.6118  -7.9406  -7.6621  -6.5288  -6.2482
    -5.7359  -5.6685  -4.7363  -4.5151  -3.4813  -3.2666   2.5297   3.0219
     3.7299   4.0153

     occupation numbers 
     1.0000   1.0000   1.0000   1.0000   1.0000   1.0000   1.0000   1.0000
     1.0000   1.0000   1.0000   1.0000   1.0000   1.0000   1.0000   1.0000
     1.0000   1.0000   1.0000   1.0000   1.0000   1.0000   0.0000   0.0000
     0.0000   0.0000

          k = 0.1111 0.0000 0.0000 (267853 PWs)   bands (ev):

   -28.0516 -27.7780 -26.6141 -26.4984 -18.6428 -15.3744 -13.4575 -10.9997
   -10.2534  -9.9548  -9.3319  -8.3528  -7.7202  -7.5572  -7.4465  -5.7517
    -5.5522  -5.2925  -4.6876  -4.3344  -4.1579  -3.2381   1.0796   4.0934
     4.2356   4.4331

     occupation numbers 
     1.0000   1.0000   1.0000   1.0000   1.0000   1.0000   1.0000   1.0000
     1.0000   1.0000   1.0000   1.0000   1.0000   1.0000   1.0000   1.0000
     1.0000   1.0000   1.0000   1.0000   1.0000   1.0000   0.0000   0.0000
     0.0000   0.0000

          k = 0.1111 0.0700 0.0000 (267770 PWs)   bands (ev):

   -28.0208 -27.7543 -26.6512 -26.5327 -18.5814 -15.5922 -13.2850 -10.9652
   -10.1530 -10.0023  -9.2712  -8.3769  -7.7336  -7.6567  -7.3591  -5.8343
    -5.5857  -5.2884  -4.6948  -4.3122  -4.1700  -3.2991   1.2084   4.2298
     4.2591   4.4509

     occupation numbers 
     1.0000   1.0000   1.0000   1.0000   1.0000   1.0000   1.0000   1.0000
     1.0000   1.0000   1.0000   1.0000   1.0000   1.0000   1.0000   1.0000
     1.0000   1.0000   1.0000   1.0000   1.0000   1.0000   0.0000   0.0000
     0.0000   0.0000

          k = 0.1111 0.1400 0.0000 (267740 PWs)   bands (ev):

   -27.9329 -27.6899 -26.7506 -26.6280 -18.3991 -16.0836 -12.9021 -10.9402
   -10.0622  -9.9091  -9.0895  -8.4598  -7.9152  -7.7768  -7.1259  -5.9526
    -5.6575  -5.3951  -4.7448  -4.2216  -4.2182  -3.4369   1.5674   4.1767
     4.4997   4.6452

     occupation numbers 
     1.0000   1.0000   1.0000   1.0000   1.0000   1.0000   1.0000   1.0000
     1.0000   1.0000   1.0000   1.0000   1.0000   1.0000   1.0000   1.0000
     1.0000   1.0000   1.0000   1.0000   1.0000   1.0000   0.0000   0.0000
     0.0000   0.0000

          k = 0.1111 0.2100 0.0000 (267755 PWs)   bands (ev):

   -27.8028 -27.6118 -26.8738 -26.7609 -18.1015 -16.6535 -12.4461 -11.1196
    -9.9340  -9.6420  -8.8478  -8.6119  -8.2191  -7.8604  -6.7994  -6.0060
    -5.7252  -5.6453  -4.8055  -4.3675  -4.0591  -3.5760   2.0932   3.9168
     4.5655   4.7441

     occupation numbers 
     1.0000   1.0000   1.0000   1.0000   1.0000   1.0000   1.0000   1.0000
     1.0000   1.0000   1.0000   1.0000   1.0000   1.0000   1.0000   1.0000
     1.0000   1.0000   1.0000   1.0000   1.0000   1.0000   0.0000   0.0000
     0.0000   0.0000

          k = 0.1111 0.2799 0.0000 (267756 PWs)   bands (ev):

   -27.6642 -27.5839 -26.9428 -26.8896 -17.6989 -17.2075 -11.9666 -11.5019
    -9.6446  -9.4846  -8.8302  -8.7906  -8.2227  -8.0108  -6.4495  -6.1322
    -5.8183  -5.7830  -4.7702  -4.5919  -3.8789  -3.7140   2.7165   3.3661
     4.6274   4.6762

     occupation numbers 
     1.0000   1.0000   1.0000   1.0000   1.0000   1.0000   1.0000   1.0000
     1.0000   1.0000   1.0000   1.0000   1.0000   1.0000   1.0000   1.0000
     1.0000   1.0000   1.0000   1.0000   1.0000   1.0000   0.0000   0.0000
     0.0000   0.0000

          k = 0.2222 0.0000 0.0000 (267721 PWs)   bands (ev):

   -27.8184 -27.5735 -26.6245 -26.5124 -18.1829 -14.9269 -13.3940 -10.6677
   -10.6438 -10.1259 -10.0551  -8.7504  -8.7042  -7.6873  -7.2058  -6.2212
    -6.1599  -5.6750  -5.2674  -4.6026  -4.2035  -4.1715   1.6712   3.8123
     5.6019   6.0359

     occupation numbers 
     1.0000   1.0000   1.0000   1.0000   1.0000   1.0000   1.0000   1.0000
     1.0000   1.0000   1.0000   1.0000   1.0000   1.0000   1.0000   1.0000
     1.0000   1.0000   1.0000   1.0000   1.0000   1.0000   0.0000   0.0000
     0.0000   0.0000

          k = 0.2222 0.0700 0.0000 (267723 PWs)   bands (ev):

   -27.7917 -27.5532 -26.6537 -26.5400 -18.1235 -15.1632 -13.2194 -10.6571
   -10.6541 -10.1980  -9.9105  -8.9072  -8.5565  -7.8025  -7.1511  -6.2488
    -6.1527  -5.5665  -5.2017  -4.5979  -4.3252  -4.1931   1.7635   3.9747
     5.5789   6.0748

     occupation numbers 
     1.0000   1.0000   1.0000   1.0000   1.0000   1.0000   1.0000   1.0000
     1.0000   1.0000   1.0000   1.0000   1.0000   1.0000   1.0000   1.0000
     1.0000   1.0000   1.0000   1.0000   1.0000   1.0000   0.0000   0.0000
     0.0000   0.0000

          k = 0.2222 0.1400 0.0000 (267734 PWs)   bands (ev):

   -27.7157 -27.4985 -26.7324 -26.6168 -17.9469 -15.6704 -12.8652 -10.7903
   -10.5892 -10.3000  -9.5672  -9.0676  -8.4169  -8.0731  -6.9926  -6.2463
    -6.1336  -5.4276  -5.0651  -4.5756  -4.5742  -4.2769   2.0374   4.3782
     5.4253   5.9734

     occupation numbers 
     1.0000   1.0000   1.0000   1.0000   1.0000   1.0000   1.0000   1.0000
     1.0000   1.0000   1.0000   1.0000   1.0000   1.0000   1.0000   1.0000
     1.0000   1.0000   1.0000   1.0000   1.0000   1.0000   0.0000   0.0000
     0.0000   0.0000

          k = 0.2222 0.2100 0.0000 (267823 PWs)   bands (ev):

   -27.6036 -27.4330 -26.8296 -26.7253 -17.6582 -16.2403 -12.4666 -11.1427
   -10.4721 -10.2884  -9.2243  -9.1824  -8.3348  -8.3258  -6.7397  -6.1831
    -6.0961  -5.5455  -4.9837  -4.7940  -4.5001  -4.3297   2.4825   4.4382
     5.3711   5.9548

     occupation numbers 
     1.0000   1.0000   1.0000   1.0000   1.0000   1.0000   1.0000   1.0000
     1.0000   1.0000   1.0000   1.0000   1.0000   1.0000   1.0000   1.0000
     1.0000   1.0000   1.0000   1.0000   1.0000   1.0000   0.0000   0.0000
     0.0000   0.0000

          k = 0.2222 0.2799 0.0000 (267704 PWs)   bands (ev):

   -27.4839 -27.4124 -26.8810 -26.8325 -17.2665 -16.7861 -12.0398 -11.5884
   -10.3458 -10.2750  -9.2020  -9.1342  -8.3835  -8.3157  -6.4090  -6.1558
    -6.0363  -5.8781  -4.9774  -4.9305  -4.3922  -4.3365   3.0772   3.7787
     5.7950   6.0476

     occupation numbers 
     1.0000   1.0000   1.0000   1.0000   1.0000   1.0000   1.0000   1.0000
     1.0000   1.0000   1.0000   1.0000   1.0000   1.0000   1.0000   1.0000
     1.0000   1.0000   1.0000   1.0000   1.0000   1.0000   0.0000   0.0000
     0.0000   0.0000

          k = 0.3333 0.0000 0.0000 (267639 PWs)   bands (ev):

   -27.4894 -27.2854 -26.6926 -26.5787 -17.4274 -14.2052 -13.9014 -11.4306
   -10.9000 -10.2105  -9.8113  -9.3690  -9.3226  -8.0436  -7.0965  -6.4345
    -6.4004  -6.3421  -5.8821  -4.8988  -4.7601  -4.4928   2.4297   4.0021
     5.6287   6.9661

     occupation numbers 
     1.0000   1.0000   1.0000   1.0000   1.0000   1.0000   1.0000   1.0000
     1.0000   1.0000   1.0000   1.0000   1.0000   1.0000   1.0000   1.0000
     1.0000   1.0000   1.0000   1.0000   1.0000   1.0000   0.0000   0.0000
     0.0000   0.0000

          k = 0.3333 0.0700 0.0000 (267619 PWs)   bands (ev):

   -27.4700 -27.2712 -26.7100 -26.5960 -17.3715 -14.5123 -13.7197 -11.3290
   -11.0898 -10.2526  -9.7388  -9.5094  -9.0537  -8.1614  -7.0059  -6.5056
    -6.4275  -6.1788  -5.7389  -5.0473  -4.7294  -4.4592   2.4925   4.1070
     5.5872   6.9509

     occupation numbers 
     1.0000   1.0000   1.0000   1.0000   1.0000   1.0000   1.0000   1.0000
     1.0000   1.0000   1.0000   1.0000   1.0000   1.0000   1.0000   1.0000
     1.0000   1.0000   1.0000   1.0000   1.0000   1.0000   0.0000   0.0000
     0.0000   0.0000

          k = 0.3333 0.1400 0.0000 (267638 PWs)   bands (ev):

   -27.4148 -27.2338 -26.7566 -26.6449 -17.2053 -15.0279 -13.4883 -11.5196
   -11.1106 -10.3625  -9.5841  -9.5681  -8.7350  -8.3500  -6.8480  -6.5529
    -6.4006  -5.8804  -5.4920  -5.3237  -4.6544  -4.4782   2.6909   4.3735
     5.4404   6.2757

     occupation numbers 
     1.0000   1.0000   1.0000   1.0000   1.0000   1.0000   1.0000   1.0000
     1.0000   1.0000   1.0000   1.0000   1.0000   1.0000   1.0000   1.0000
     1.0000   1.0000   1.0000   1.0000   1.0000   1.0000   0.0000   0.0000
     0.0000   0.0000

          k = 0.3333 0.2100 0.0000 (267641 PWs)   bands (ev):

   -27.3338 -27.1920 -26.8121 -26.7157 -16.9328 -15.5803 -13.2244 -12.0149
   -10.8923 -10.4795  -9.6018  -9.5156  -8.4800  -8.3951  -6.7440  -6.4131
    -6.4037  -5.5889  -5.5668  -5.3211  -4.5792  -4.5594   3.0448   4.5399
     5.2586   5.8742

     occupation numbers 
     1.0000   1.0000   1.0000   1.0000   1.0000   1.0000   1.0000   1.0000
     1.0000   1.0000   1.0000   1.0000   1.0000   1.0000   1.0000   1.0000
     1.0000   1.0000   1.0000   1.0000   1.0000   1.0000   0.0000   0.0000
     0.0000   0.0000

          k = 0.3333 0.2799 0.0000 (267713 PWs)   bands (ev):

   -27.2461 -27.1874 -26.8326 -26.7897 -16.5615 -16.1037 -12.8937 -12.4864
   -10.7174 -10.5881  -9.6100  -9.5668  -8.3403  -8.3324  -6.6430  -6.5070
    -6.1239  -5.8150  -5.3839  -5.2914  -4.5820  -4.5551   3.5543   4.1469
     5.3735   5.5872

     occupation numbers 
     1.0000   1.0000   1.0000   1.0000   1.0000   1.0000   1.0000   1.0000
     1.0000   1.0000   1.0000   1.0000   1.0000   1.0000   1.0000   1.0000
     1.0000   1.0000   1.0000   1.0000   1.0000   1.0000   0.0000   0.0000
     0.0000   0.0000

          k = 0.4444 0.0000 0.0000 (267622 PWs)   bands (ev):

   -27.1440 -26.9825 -26.8631 -26.7337 -16.3946 -15.1377 -13.2448 -12.0997
   -11.1706 -10.5351  -9.6190  -9.4961  -9.2029  -8.5850  -7.2041  -6.9476
    -6.3896  -6.2513  -6.0327  -5.4852  -4.8512  -4.7742   3.3265   4.4176
     4.7002   5.8259

     occupation numbers 
     1.0000   1.0000   1.0000   1.0000   1.0000   1.0000   1.0000   1.0000
     1.0000   1.0000   1.0000   1.0000   1.0000   1.0000   1.0000   1.0000
     1.0000   1.0000   1.0000   1.0000   1.0000   1.0000   0.0000   0.0000
     0.0000   0.0000

          k = 0.4444 0.0700 0.0000 (267656 PWs)   bands (ev):

   -27.1353 -26.9782 -26.8659 -26.7390 -16.3447 -15.1048 -13.4444 -12.3166
   -11.0399 -10.4536  -9.6621  -9.6376  -9.0038  -8.6028  -7.0669  -6.8184
    -6.4486  -6.4260  -5.8538  -5.5464  -4.7951  -4.7049   3.3714   4.4424
     4.7044   5.6850

     occupation numbers 
     1.0000   1.0000   1.0000   1.0000   1.0000   1.0000   1.0000   1.0000
     1.0000   1.0000   1.0000   1.0000   1.0000   1.0000   1.0000   1.0000
     1.0000   1.0000   1.0000   1.0000   1.0000   1.0000   0.0000   0.0000
     0.0000   0.0000

          k = 0.4444 0.1400 0.0000 (267651 PWs)   bands (ev):

   -27.1107 -26.9701 -26.8705 -26.7548 -16.1962 -15.0245 -13.8620 -12.7872
   -10.8091 -10.3765  -9.8457  -9.7230  -8.6993  -8.5457  -6.7568  -6.6825
    -6.5526  -6.4857  -5.6444  -5.5973  -4.6813  -4.6209   3.5152   4.4860
     4.7648   5.4240

     occupation numbers 
     1.0000   1.0000   1.0000   1.0000   1.0000   1.0000   1.0000   1.0000
     1.0000   1.0000   1.0000   1.0000   1.0000   1.0000   1.0000   1.0000
     1.0000   1.0000   1.0000   1.0000   1.0000   1.0000   0.0000   0.0000
     0.0000   0.0000

          k = 0.4444 0.2100 0.0000 (267689 PWs)   bands (ev):

   -27.0746 -26.9729 -26.8649 -26.7794 -15.9541 -15.0112 -14.1814 -13.3031
   -10.6438 -10.4199  -9.9261  -9.8492  -8.4349  -8.3902  -6.8633  -6.7308
    -6.3532  -6.0751  -5.5889  -5.5068  -4.6215  -4.6108   3.7622   4.4321
     4.9922   5.2393

     occupation numbers 
     1.0000   1.0000   1.0000   1.0000   1.0000   1.0000   1.0000   1.0000
     1.0000   1.0000   1.0000   1.0000   1.0000   1.0000   1.0000   1.0000
     1.0000   1.0000   1.0000   1.0000   1.0000   1.0000   0.0000   0.0000
     0.0000   0.0000

          k = 0.4444 0.2799 0.0000 (267655 PWs)   bands (ev):

   -27.0339 -26.9967 -26.8418 -26.8102 -15.6308 -15.2663 -14.1082 -13.7662
   -10.5573 -10.4962  -9.9489  -9.9313  -8.2831  -8.2733  -6.9248  -6.8742
    -5.9646  -5.7454  -5.6427  -5.5068  -4.6474  -4.6221   4.0549   4.2872
     5.2079   5.2103

     occupation numbers 
     1.0000   1.0000   1.0000   1.0000   1.0000   1.0000   1.0000   1.0000
     1.0000   1.0000   1.0000   1.0000   1.0000   1.0000   1.0000   1.0000
     1.0000   1.0000   1.0000   1.0000   1.0000   1.0000   0.0000   0.0000
     0.0000   0.0000

     the Fermi energy is    -1.7413 ev

!    total energy              =    -240.24642648 Ry
     estimated scf accuracy    <       0.00000057 Ry
     smearing contrib. (-TS)   =       0.00000000 Ry
     internal energy E=F+TS    =    -240.24642648 Ry

     The total energy is F=E-TS. E is the sum of the following terms:
     one-electron contribution =   -1261.17439086 Ry
     hartree contribution      =     644.41381741 Ry
     xc contribution           =     -51.69395839 Ry
     ewald contribution        =     428.20810535 Ry

     convergence has been achieved in   7 iterations

     negative rho (up, down):  5.198E-06 0.000E+00

     Forces acting on atoms (cartesian axes, Ry/au):

     atom    1 type  1   force =     0.00000000   -0.00000228    0.00001655
     atom    2 type  1   force =     0.00000000   -0.00000228   -0.00001655
     atom    3 type  1   force =     0.00000000    0.00000228    0.00001655
     atom    4 type  1   force =     0.00000000    0.00000228   -0.00001655
     atom    5 type  2   force =     0.00000000   -0.01053040    0.00025601
     atom    6 type  2   force =     0.00000000   -0.01053040   -0.00025601
     atom    7 type  2   force =     0.00000000    0.01053040    0.00025601
     atom    8 type  2   force =     0.00000000    0.01053040   -0.00025601
     The non-local contrib.  to forces
     atom    1 type  1   force =    -0.00000000   -0.16685278    0.36478128
     atom    2 type  1   force =    -0.00000000   -0.16685278   -0.36478128
     atom    3 type  1   force =     0.00000000    0.16685278    0.36478128
     atom    4 type  1   force =     0.00000000    0.16685278   -0.36478128
     atom    5 type  2   force =     0.00000000   -1.02276962    2.26135034
     atom    6 type  2   force =    -0.00000000   -1.02276962   -2.26135034
     atom    7 type  2   force =    -0.00000000    1.02276962    2.26135034
     atom    8 type  2   force =     0.00000000    1.02276962   -2.26135034
     The ionic contribution  to forces
     atom    1 type  1   force =     0.00000000    1.00111513    2.94492667
     atom    2 type  1   force =    -0.00000000    1.00111513   -2.94492667
     atom    3 type  1   force =     0.00000000   -1.00111513    2.94492667
     atom    4 type  1   force =     0.00000000   -1.00111513   -2.94492667
     atom    5 type  2   force =     0.00000000    3.87385111  -44.60495654
     atom    6 type  2   force =    -0.00000000    3.87385111   44.60495654
     atom    7 type  2   force =     0.00000000   -3.87385111  -44.60495654
     atom    8 type  2   force =     0.00000000   -3.87385111   44.60495654
     The local contribution  to forces
     atom    1 type  1   force =    -0.00000000   -0.83536109   -3.30663646
     atom    2 type  1   force =    -0.00000000   -0.83536109    3.30663646
     atom    3 type  1   force =     0.00000000    0.83536109   -3.30663646
     atom    4 type  1   force =     0.00000000    0.83536109    3.30663646
     atom    5 type  2   force =     0.00000000   -2.86114860   42.34244346
     atom    6 type  2   force =    -0.00000000   -2.86114860  -42.34244346
     atom    7 type  2   force =    -0.00000000    2.86114860   42.34244346
     atom    8 type  2   force =     0.00000000    2.86114860  -42.34244346
     The core correction contribution to forces
     atom    1 type  1   force =    -0.00000000    0.00101336   -0.00269208
     atom    2 type  1   force =    -0.00000000    0.00101336    0.00269208
     atom    3 type  1   force =     0.00000000   -0.00101336   -0.00269208
     atom    4 type  1   force =     0.00000000   -0.00101336    0.00269208
     atom    5 type  2   force =     0.00000000    0.00000000    0.00000000
     atom    6 type  2   force =     0.00000000    0.00000000    0.00000000
     atom    7 type  2   force =     0.00000000    0.00000000    0.00000000
     atom    8 type  2   force =     0.00000000    0.00000000    0.00000000
     The Hubbard contrib.    to forces
     atom    1 type  1   force =     0.00000000    0.00000000    0.00000000
     atom    2 type  1   force =     0.00000000    0.00000000    0.00000000
     atom    3 type  1   force =     0.00000000    0.00000000    0.00000000
     atom    4 type  1   force =     0.00000000    0.00000000    0.00000000
     atom    5 type  2   force =     0.00000000    0.00000000    0.00000000
     atom    6 type  2   force =     0.00000000    0.00000000    0.00000000
     atom    7 type  2   force =     0.00000000    0.00000000    0.00000000
     atom    8 type  2   force =     0.00000000    0.00000000    0.00000000
     The SCF correction term to forces
     atom    1 type  1   force =     0.00000000    0.00008310   -0.00036286
     atom    2 type  1   force =     0.00000000    0.00008310    0.00036286
     atom    3 type  1   force =     0.00000000   -0.00008310   -0.00036286
     atom    4 type  1   force =     0.00000000   -0.00008310    0.00036286
     atom    5 type  2   force =    -0.00000000   -0.00000000    0.00141876
     atom    6 type  2   force =     0.00000000   -0.00000000   -0.00141876
     atom    7 type  2   force =    -0.00000000    0.00000000    0.00141876
     atom    8 type  2   force =     0.00000000    0.00000000   -0.00141876

     Total force =     0.000513     Total SCF correction =     0.002934
     SCF correction compared to forces is large: reduce conv_thr to get better values


     Computing stress (Cartesian axis) and pressure


     negative rho (up, down):  5.198E-06 0.000E+00
          total   stress  (Ry/bohr**3)                   (kbar)     P=        0.45
   0.00000379   0.00000000   0.00000000            0.56        0.00        0.00
   0.00000000   0.00000359   0.00000000            0.00        0.53        0.00
   0.00000000   0.00000000   0.00000184            0.00        0.00        0.27

     kinetic stress (kbar)   9185.00      0.00      0.00
                                0.00   8993.28      0.00
                                0.00      0.00   8358.79

     local   stress (kbar)-162640.12     -0.00     -0.00
                               -0.00-164124.77     -0.00
                               -0.00     -0.00 157314.47

     nonloc. stress (kbar)   1186.87      0.00      0.00
                                0.00   1140.39      0.00
                                0.00      0.00    972.59

     hartree stress (kbar)  81594.35     -0.00      0.00
                               -0.00  82027.26      0.00
                                0.00      0.00 -75738.49

     exc-cor stress (kbar)  -2153.30      0.00      0.00
                                0.00  -2149.00      0.00
                                0.00      0.00  -2142.83

     corecor stress (kbar)    -74.03      0.00     -0.00
                                0.00    -73.86     -0.00
                               -0.00     -0.00    -72.91

     ewald   stress (kbar)  72901.79      0.00     -0.00
                                0.00  74187.23     -0.00
                               -0.00     -0.00 -88691.35

     hubbard stress (kbar)      0.00      0.00      0.00
                                0.00      0.00      0.00
                                0.00      0.00      0.00

     DFT-D   stress (kbar)      0.00      0.00      0.00
                                0.00      0.00      0.00
                                0.00      0.00      0.00

     XDM     stress (kbar)      0.00      0.00      0.00
                                0.00      0.00      0.00
                                0.00      0.00      0.00

     dft-nl  stress (kbar)      0.00      0.00      0.00
                                0.00      0.00      0.00
                                0.00      0.00      0.00

     TS-vdW  stress (kbar)      0.00      0.00      0.00
                                0.00      0.00      0.00
                                0.00      0.00      0.00

     MDB     stress (kbar)      0.00      0.00      0.00
                                0.00      0.00      0.00
                                0.00      0.00      0.00

     3D-RISM stress (kbar)      0.00      0.00      0.00
                                0.00      0.00      0.00
                                0.00      0.00      0.00


     BFGS Geometry Optimization
     Energy error            =      0.0E+00 Ry
     Gradient error          =      2.6E-04 Ry/Bohr
     Cell gradient error     =      5.6E-01 kbar

     number of scf cycles    =   1
     number of bfgs steps    =   0

     enthalpy           new  =    -240.2464264804 Ry

     new trust radius        =       0.0006226141 bohr
     new conv_thr            =       0.0000010000 Ry

     new unit-cell volume =   1078.91499 a.u.^3 (   159.87871 Ang^3 )
     density =      1.28827 g/cm^3

CELL_PARAMETERS (angstrom)
   2.628799947   0.000000000   0.000000000
   0.000000000   4.173485983   0.000000000
   0.000000000   0.000000000  14.572502179

ATOMIC_POSITIONS (crystal)
C             0.5000000000        0.1408822385        0.0354720626    0   1   1
C             0.0000000000        0.6408822385       -0.0354720626    0   1   1
C             0.0000000000        0.3591177615        0.0354720626    0   1   1
C             0.5000000000        0.8591177615       -0.0354720626    0   1   1
F             0.5000000000        0.0000000000       -0.1212147494    0   0   1
F             0.0000000000        0.5000000000        0.1212147494    0   0   1
F             0.0000000000        0.5000000000       -0.1212147494    0   0   1
F             0.5000000000        0.0000000000        0.1212147494    0   0   1



     Writing config-only to output data dir ../tmp/fgz.save/
     NEW-OLD atomic charge density approx. for the potential

     negative rho (up, down):  3.824E-05 0.000E+00
     extrapolated charge   44.01015, renormalised to   44.00000

     total cpu time spent up to now is     2926.8 secs

     Self-consistent Calculation

     iteration #  1     ecut=   600.00 Ry     beta= 0.70
     Davidson diagonalization with overlap

---- Real-time Memory Report at c_bands before calling an iterative solver
           184 MiB given to the printing process from OS
             0 MiB allocation reported by mallinfo(arena+hblkhd)
        343443 MiB available memory on the node where the printing process lives
------------------
     ethr =  1.00E-06,  avg # of iterations =  3.0

     Threshold (ethr) on eigenvalues was too large:
     Diagonalizing with lowered threshold

     Davidson diagonalization with overlap

---- Real-time Memory Report at c_bands before calling an iterative solver
           184 MiB given to the printing process from OS
             0 MiB allocation reported by mallinfo(arena+hblkhd)
        343451 MiB available memory on the node where the printing process lives
------------------
     ethr =  3.18E-08,  avg # of iterations =  1.0

     negative rho (up, down):  1.155E-05 0.000E+00

     total cpu time spent up to now is     3452.3 secs

     total energy              =    -240.24640155 Ry
     estimated scf accuracy    <       0.00001406 Ry

     iteration #  2     ecut=   600.00 Ry     beta= 0.70
     Davidson diagonalization with overlap

---- Real-time Memory Report at c_bands before calling an iterative solver
           184 MiB given to the printing process from OS
             0 MiB allocation reported by mallinfo(arena+hblkhd)
        343441 MiB available memory on the node where the printing process lives
------------------
     ethr =  3.19E-08,  avg # of iterations =  4.2

     negative rho (up, down):  8.980E-06 0.000E+00

     total cpu time spent up to now is     3869.3 secs

     total energy              =    -240.24642693 Ry
     estimated scf accuracy    <       0.00002736 Ry

     iteration #  3     ecut=   600.00 Ry     beta= 0.70
     Davidson diagonalization with overlap

---- Real-time Memory Report at c_bands before calling an iterative solver
           184 MiB given to the printing process from OS
             0 MiB allocation reported by mallinfo(arena+hblkhd)
        343425 MiB available memory on the node where the printing process lives
------------------
     ethr =  3.19E-08,  avg # of iterations =  2.0

     negative rho (up, down):  7.028E-06 0.000E+00

     total cpu time spent up to now is     4132.3 secs

     total energy              =    -240.24642684 Ry
     estimated scf accuracy    <       0.00000556 Ry

     iteration #  4     ecut=   600.00 Ry     beta= 0.70
     Davidson diagonalization with overlap

---- Real-time Memory Report at c_bands before calling an iterative solver
           184 MiB given to the printing process from OS
             0 MiB allocation reported by mallinfo(arena+hblkhd)
        343439 MiB available memory on the node where the printing process lives
------------------
     ethr =  1.26E-08,  avg # of iterations =  1.7

     negative rho (up, down):  6.219E-06 0.000E+00

     total cpu time spent up to now is     4361.9 secs

     total energy              =    -240.24642670 Ry
     estimated scf accuracy    <       0.00000159 Ry

     iteration #  5     ecut=   600.00 Ry     beta= 0.70
     Davidson diagonalization with overlap

---- Real-time Memory Report at c_bands before calling an iterative solver
           184 MiB given to the printing process from OS
             0 MiB allocation reported by mallinfo(arena+hblkhd)
        343424 MiB available memory on the node where the printing process lives
------------------
     ethr =  3.62E-09,  avg # of iterations =  1.8

     negative rho (up, down):  5.207E-06 0.000E+00

     total cpu time spent up to now is     4601.7 secs

     End of self-consistent calculation

          k = 0.0000 0.0000 0.0000 (267837 PWs)   bands (ev):

   -28.1402 -27.8563 -26.6220 -26.5041 -18.8019 -15.5313 -13.5238 -11.1313
   -10.3327  -9.9396  -8.6498  -8.2556  -7.5974  -7.5426  -7.2695  -5.4142
    -5.2709  -5.2003  -4.5705  -4.2662  -4.0221  -2.7059   0.8314   3.2958
     3.4308   4.4687

     occupation numbers 
     1.0000   1.0000   1.0000   1.0000   1.0000   1.0000   1.0000   1.0000
     1.0000   1.0000   1.0000   1.0000   1.0000   1.0000   1.0000   1.0000
     1.0000   1.0000   1.0000   1.0000   1.0000   1.0000   0.0000   0.0000
     0.0000   0.0000

          k = 0.0000 0.0700 0.0000 (267845 PWs)   bands (ev):

   -28.1081 -27.8315 -26.6617 -26.5407 -18.7399 -15.7435 -13.3545 -11.0847
   -10.2113  -9.9855  -8.5992  -8.2653  -7.6944  -7.4520  -7.2800  -5.4695
    -5.3431  -5.3113  -4.6284  -4.2177  -3.9783  -2.7529   0.9794   3.3229
     3.4263   4.6499

     occupation numbers 
     1.0000   1.0000   1.0000   1.0000   1.0000   1.0000   1.0000   1.0000
     1.0000   1.0000   1.0000   1.0000   1.0000   1.0000   1.0000   1.0000
     1.0000   1.0000   1.0000   1.0000   1.0000   1.0000   0.0000   0.0000
     0.0000   0.0000

          k = 0.0000 0.1400 0.0000 (267799 PWs)   bands (ev):

   -28.0164 -27.7641 -26.7682 -26.6423 -18.5557 -16.2293 -12.9690 -11.0241
   -10.0406  -9.8961  -8.4523  -8.3081  -7.9650  -7.3274  -7.2062  -5.6484
    -5.5987  -5.4164  -4.7498  -4.1888  -3.8592  -2.8811   1.3794   3.3977
     3.4026   5.1584

     occupation numbers 
     1.0000   1.0000   1.0000   1.0000   1.0000   1.0000   1.0000   1.0000
     1.0000   1.0000   1.0000   1.0000   1.0000   1.0000   1.0000   1.0000
     1.0000   1.0000   1.0000   1.0000   1.0000   1.0000   0.0000   0.0000
     0.0000   0.0000

          k = 0.0000 0.2099 0.0000 (267686 PWs)   bands (ev):

   -27.8805 -27.6822 -26.9000 -26.7835 -18.2554 -16.7985 -12.5005 -11.1654
    -9.8855  -9.5015  -8.4182  -8.3655  -8.2248  -7.4502  -6.8664  -5.9698
    -5.7139  -5.5505  -4.8205  -4.2944  -3.6882  -3.0630   1.9327   3.2925
     3.5331   4.4150

     occupation numbers 
     1.0000   1.0000   1.0000   1.0000   1.0000   1.0000   1.0000   1.0000
     1.0000   1.0000   1.0000   1.0000   1.0000   1.0000   1.0000   1.0000
     1.0000   1.0000   1.0000   1.0000   1.0000   1.0000   0.0000   0.0000
     0.0000   0.0000

          k = 0.0000 0.2799 0.0000 (267766 PWs)   bands (ev):

   -27.7357 -27.6523 -26.9745 -26.9194 -17.8495 -17.3547 -12.0067 -11.5356
    -9.5090  -9.2267  -8.7323  -8.6171  -7.9472  -7.6686  -6.5329  -6.2525
    -5.7407  -5.6733  -4.7408  -4.5199  -3.4865  -3.2720   2.5243   3.0157
     3.7218   4.0082

     occupation numbers 
     1.0000   1.0000   1.0000   1.0000   1.0000   1.0000   1.0000   1.0000
     1.0000   1.0000   1.0000   1.0000   1.0000   1.0000   1.0000   1.0000
     1.0000   1.0000   1.0000   1.0000   1.0000   1.0000   0.0000   0.0000
     0.0000   0.0000

          k = 0.1111 0.0000 0.0000 (267853 PWs)   bands (ev):

   -28.0563 -27.7827 -26.6195 -26.5037 -18.6475 -15.3798 -13.4632 -11.0043
   -10.2577  -9.9594  -9.3383  -8.3577  -7.7260  -7.5625  -7.4502  -5.7565
    -5.5570  -5.2975  -4.6922  -4.3389  -4.1630  -3.2440   1.0749   4.0861
     4.2288   4.4238

     occupation numbers 
     1.0000   1.0000   1.0000   1.0000   1.0000   1.0000   1.0000   1.0000
     1.0000   1.0000   1.0000   1.0000   1.0000   1.0000   1.0000   1.0000
     1.0000   1.0000   1.0000   1.0000   1.0000   1.0000   0.0000   0.0000
     0.0000   0.0000

          k = 0.1111 0.0700 0.0000 (267770 PWs)   bands (ev):

   -28.0256 -27.7589 -26.6565 -26.5380 -18.5861 -15.5976 -13.2907 -10.9699
   -10.1574 -10.0069  -9.2775  -8.3818  -7.7394  -7.6619  -7.3629  -5.8390
    -5.5905  -5.2934  -4.6994  -4.3168  -4.1752  -3.3049   1.2036   4.2229
     4.2520   4.4417

     occupation numbers 
     1.0000   1.0000   1.0000   1.0000   1.0000   1.0000   1.0000   1.0000
     1.0000   1.0000   1.0000   1.0000   1.0000   1.0000   1.0000   1.0000
     1.0000   1.0000   1.0000   1.0000   1.0000   1.0000   0.0000   0.0000
     0.0000   0.0000

          k = 0.1111 0.1400 0.0000 (267740 PWs)   bands (ev):

   -27.9377 -27.6947 -26.7559 -26.6331 -18.4038 -16.0890 -12.9074 -10.9450
   -10.0667  -9.9139  -9.0957  -8.4650  -7.9204  -7.7826  -7.1299  -5.9571
    -5.6623  -5.4001  -4.7493  -4.2267  -4.2228  -3.4426   1.5625   4.1699
     4.4907   4.6389

     occupation numbers 
     1.0000   1.0000   1.0000   1.0000   1.0000   1.0000   1.0000   1.0000
     1.0000   1.0000   1.0000   1.0000   1.0000   1.0000   1.0000   1.0000
     1.0000   1.0000   1.0000   1.0000   1.0000   1.0000   0.0000   0.0000
     0.0000   0.0000

          k = 0.1111 0.2099 0.0000 (267755 PWs)   bands (ev):

   -27.8077 -27.6166 -26.8789 -26.7660 -18.1064 -16.6587 -12.4512 -11.1245
    -9.9386  -9.6470  -8.8538  -8.6173  -8.2245  -7.8662  -6.8036  -6.0104
    -5.7300  -5.6502  -4.8099  -4.3725  -4.0639  -3.5814   2.0881   3.9105
     4.5568   4.7376

     occupation numbers 
     1.0000   1.0000   1.0000   1.0000   1.0000   1.0000   1.0000   1.0000
     1.0000   1.0000   1.0000   1.0000   1.0000   1.0000   1.0000   1.0000
     1.0000   1.0000   1.0000   1.0000   1.0000   1.0000   0.0000   0.0000
     0.0000   0.0000

          k = 0.1111 0.2799 0.0000 (267756 PWs)   bands (ev):

   -27.6691 -27.5888 -26.9477 -26.8945 -17.7039 -17.2126 -11.9716 -11.5068
    -9.6494  -9.4897  -8.8357  -8.7960  -8.2287  -8.0167  -6.4538  -6.1366
    -5.8231  -5.7877  -4.7747  -4.5967  -3.8839  -3.7192   2.7112   3.3604
     4.6192   4.6687

     occupation numbers 
     1.0000   1.0000   1.0000   1.0000   1.0000   1.0000   1.0000   1.0000
     1.0000   1.0000   1.0000   1.0000   1.0000   1.0000   1.0000   1.0000
     1.0000   1.0000   1.0000   1.0000   1.0000   1.0000   0.0000   0.0000
     0.0000   0.0000

          k = 0.2222 0.0000 0.0000 (267721 PWs)   bands (ev):

   -27.8232 -27.5782 -26.6298 -26.5177 -18.1877 -14.9324 -13.4000 -10.6737
   -10.6487 -10.1308 -10.0596  -8.7556  -8.7098  -7.6926  -7.2095  -6.2255
    -6.1644  -5.6798  -5.2717  -4.6069  -4.2084  -4.1769   1.6663   3.8054
     5.5959   6.0330

     occupation numbers 
     1.0000   1.0000   1.0000   1.0000   1.0000   1.0000   1.0000   1.0000
     1.0000   1.0000   1.0000   1.0000   1.0000   1.0000   1.0000   1.0000
     1.0000   1.0000   1.0000   1.0000   1.0000   1.0000   0.0000   0.0000
     0.0000   0.0000

          k = 0.2222 0.0700 0.0000 (267723 PWs)   bands (ev):

   -27.7966 -27.5580 -26.6590 -26.5452 -18.1283 -15.1687 -13.2252 -10.6620
   -10.6599 -10.2029  -9.9153  -8.9127  -8.5618  -7.8077  -7.1549  -6.2531
    -6.1572  -5.5713  -5.2061  -4.6022  -4.3303  -4.1982   1.7585   3.9677
     5.5728   6.0712

     occupation numbers 
     1.0000   1.0000   1.0000   1.0000   1.0000   1.0000   1.0000   1.0000
     1.0000   1.0000   1.0000   1.0000   1.0000   1.0000   1.0000   1.0000
     1.0000   1.0000   1.0000   1.0000   1.0000   1.0000   0.0000   0.0000
     0.0000   0.0000

          k = 0.2222 0.1400 0.0000 (267734 PWs)   bands (ev):

   -27.7206 -27.5033 -26.7377 -26.6220 -17.9518 -15.6759 -12.8709 -10.7954
   -10.5947 -10.3048  -9.5724  -9.0731  -8.4221  -8.0783  -6.9965  -6.2506
    -6.1381  -5.4326  -5.0696  -4.5799  -4.5791  -4.2820   2.0323   4.3715
     5.4180   5.9673

     occupation numbers 
     1.0000   1.0000   1.0000   1.0000   1.0000   1.0000   1.0000   1.0000
     1.0000   1.0000   1.0000   1.0000   1.0000   1.0000   1.0000   1.0000
     1.0000   1.0000   1.0000   1.0000   1.0000   1.0000   0.0000   0.0000
     0.0000   0.0000

          k = 0.2222 0.2099 0.0000 (267823 PWs)   bands (ev):

   -27.6086 -27.4379 -26.8347 -26.7304 -17.6632 -16.2457 -12.4721 -11.1479
   -10.4774 -10.2934  -9.2297  -9.1877  -8.3398  -8.3310  -6.7438  -6.1874
    -6.1007  -5.5504  -4.9883  -4.7987  -4.5046  -4.3347   2.4772   4.4326
     5.3616   5.9487

     occupation numbers 
     1.0000   1.0000   1.0000   1.0000   1.0000   1.0000   1.0000   1.0000
     1.0000   1.0000   1.0000   1.0000   1.0000   1.0000   1.0000   1.0000
     1.0000   1.0000   1.0000   1.0000   1.0000   1.0000   0.0000   0.0000
     0.0000   0.0000

          k = 0.2222 0.2799 0.0000 (267704 PWs)   bands (ev):

   -27.4889 -27.4174 -26.8860 -26.8375 -17.2716 -16.7913 -12.0452 -11.5937
   -10.3511 -10.2801  -9.2072  -9.1394  -8.3887  -8.3209  -6.4132  -6.1601
    -6.0409  -5.8829  -4.9819  -4.9351  -4.3969  -4.3413   3.0718   3.7730
     5.7868   6.0409

     occupation numbers 
     1.0000   1.0000   1.0000   1.0000   1.0000   1.0000   1.0000   1.0000
     1.0000   1.0000   1.0000   1.0000   1.0000   1.0000   1.0000   1.0000
     1.0000   1.0000   1.0000   1.0000   1.0000   1.0000   0.0000   0.0000
     0.0000   0.0000

          k = 0.3333 0.0000 0.0000 (267639 PWs)   bands (ev):

   -27.4944 -27.2903 -26.6980 -26.5840 -17.4324 -14.2108 -13.9074 -11.4362
   -10.9056 -10.2160  -9.8159  -9.3739  -9.3276  -8.0488  -7.1005  -6.4387
    -6.4044  -6.3466  -5.8860  -4.9037  -4.7643  -4.4973   2.4244   3.9954
     5.6222   6.9585

     occupation numbers 
     1.0000   1.0000   1.0000   1.0000   1.0000   1.0000   1.0000   1.0000
     1.0000   1.0000   1.0000   1.0000   1.0000   1.0000   1.0000   1.0000
     1.0000   1.0000   1.0000   1.0000   1.0000   1.0000   0.0000   0.0000
     0.0000   0.0000

          k = 0.3333 0.0700 0.0000 (267619 PWs)   bands (ev):

   -27.4750 -27.2762 -26.7153 -26.6013 -17.3766 -14.5180 -13.7256 -11.3346
   -11.0955 -10.2579  -9.7436  -9.5144  -9.0587  -8.1665  -7.0100  -6.5097
    -6.4316  -6.1833  -5.7431  -5.0520  -4.7336  -4.4639   2.4872   4.1002
     5.5804   6.7630

     occupation numbers 
     1.0000   1.0000   1.0000   1.0000   1.0000   1.0000   1.0000   1.0000
     1.0000   1.0000   1.0000   1.0000   1.0000   1.0000   1.0000   1.0000
     1.0000   1.0000   1.0000   1.0000   1.0000   1.0000   0.0000   0.0000
     0.0000   0.0000

          k = 0.3333 0.1400 0.0000 (267638 PWs)   bands (ev):

   -27.4199 -27.2388 -26.7619 -26.6501 -17.2104 -15.0335 -13.4941 -11.5254
   -11.1160 -10.3675  -9.5890  -9.5731  -8.7399  -8.3549  -6.8520  -6.5571
    -6.4046  -5.8851  -5.4964  -5.3283  -4.6587  -4.4829   2.6855   4.3668
     5.4328   6.2691

     occupation numbers 
     1.0000   1.0000   1.0000   1.0000   1.0000   1.0000   1.0000   1.0000
     1.0000   1.0000   1.0000   1.0000   1.0000   1.0000   1.0000   1.0000
     1.0000   1.0000   1.0000   1.0000   1.0000   1.0000   0.0000   0.0000
     0.0000   0.0000

          k = 0.3333 0.2099 0.0000 (267641 PWs)   bands (ev):

   -27.3389 -27.1971 -26.8173 -26.7208 -16.9380 -15.5859 -13.2302 -12.0207
   -10.8974 -10.4845  -9.6067  -9.5206  -8.4849  -8.4001  -6.7478  -6.4176
    -6.4077  -5.5934  -5.5717  -5.3257  -4.5836  -4.5640   3.0392   4.5343
     5.2490   5.8671

     occupation numbers 
     1.0000   1.0000   1.0000   1.0000   1.0000   1.0000   1.0000   1.0000
     1.0000   1.0000   1.0000   1.0000   1.0000   1.0000   1.0000   1.0000
     1.0000   1.0000   1.0000   1.0000   1.0000   1.0000   0.0000   0.0000
     0.0000   0.0000

          k = 0.3333 0.2799 0.0000 (267713 PWs)   bands (ev):

   -27.2513 -27.1926 -26.8377 -26.7948 -16.5668 -16.1091 -12.8995 -12.4922
   -10.7224 -10.5930  -9.6149  -9.5717  -8.3453  -8.3375  -6.6468  -6.5110
    -6.1286  -5.8198  -5.3885  -5.2960  -4.5866  -4.5597   3.5485   4.1412
     5.3645   5.5793

     occupation numbers 
     1.0000   1.0000   1.0000   1.0000   1.0000   1.0000   1.0000   1.0000
     1.0000   1.0000   1.0000   1.0000   1.0000   1.0000   1.0000   1.0000
     1.0000   1.0000   1.0000   1.0000   1.0000   1.0000   0.0000   0.0000
     0.0000   0.0000

          k = 0.4444 0.0000 0.0000 (267622 PWs)   bands (ev):

   -27.1492 -26.9875 -26.8684 -26.7389 -16.3999 -15.1434 -13.2506 -12.1054
   -11.1764 -10.5411  -9.6238  -9.5009  -9.2076  -8.5900  -7.2082  -6.9518
    -6.3935  -6.2552  -6.0370  -5.4898  -4.8553  -4.7784   3.3208   4.4114
     4.6935   5.8191

     occupation numbers 
     1.0000   1.0000   1.0000   1.0000   1.0000   1.0000   1.0000   1.0000
     1.0000   1.0000   1.0000   1.0000   1.0000   1.0000   1.0000   1.0000
     1.0000   1.0000   1.0000   1.0000   1.0000   1.0000   0.0000   0.0000
     0.0000   0.0000

          k = 0.4444 0.0700 0.0000 (267656 PWs)   bands (ev):

   -27.1405 -26.9833 -26.8711 -26.7442 -16.3500 -15.1105 -13.4501 -12.3224
   -11.0456 -10.4594  -9.6667  -9.6423  -9.0086  -8.6077  -7.0711  -6.8227
    -6.4525  -6.4299  -5.8582  -5.5509  -4.7993  -4.7092   3.3657   4.4361
     4.6976   5.6782

     occupation numbers 
     1.0000   1.0000   1.0000   1.0000   1.0000   1.0000   1.0000   1.0000
     1.0000   1.0000   1.0000   1.0000   1.0000   1.0000   1.0000   1.0000
     1.0000   1.0000   1.0000   1.0000   1.0000   1.0000   0.0000   0.0000
     0.0000   0.0000

          k = 0.4444 0.1400 0.0000 (267651 PWs)   bands (ev):

   -27.1159 -26.9752 -26.8757 -26.7599 -16.2016 -15.0302 -13.8676 -12.7929
   -10.8146 -10.3821  -9.8503  -9.7277  -8.7043  -8.5506  -6.7611  -6.6862
    -6.5564  -6.4902  -5.6489  -5.6018  -4.6856  -4.6254   3.5094   4.4800
     4.7573   5.4170

     occupation numbers 
     1.0000   1.0000   1.0000   1.0000   1.0000   1.0000   1.0000   1.0000
     1.0000   1.0000   1.0000   1.0000   1.0000   1.0000   1.0000   1.0000
     1.0000   1.0000   1.0000   1.0000   1.0000   1.0000   0.0000   0.0000
     0.0000   0.0000

          k = 0.4444 0.2099 0.0000 (267689 PWs)   bands (ev):

   -27.0799 -26.9781 -26.8701 -26.7846 -15.9595 -15.0169 -14.1869 -13.3088
   -10.6490 -10.4252  -9.9307  -9.8539  -8.4399  -8.3952  -6.8669  -6.7345
    -6.3579  -6.0798  -5.5936  -5.5115  -4.6260  -4.6153   3.7563   4.4265
     4.9834   5.2318

     occupation numbers 
     1.0000   1.0000   1.0000   1.0000   1.0000   1.0000   1.0000   1.0000
     1.0000   1.0000   1.0000   1.0000   1.0000   1.0000   1.0000   1.0000
     1.0000   1.0000   1.0000   1.0000   1.0000   1.0000   0.0000   0.0000
     0.0000   0.0000

          k = 0.4444 0.2799 0.0000 (267655 PWs)   bands (ev):

   -27.0392 -27.0020 -26.8469 -26.8154 -15.6364 -15.2719 -14.1137 -13.7718
   -10.5625 -10.5013  -9.9535  -9.9358  -8.2881  -8.2783  -6.9284  -6.8777
    -5.9694  -5.7502  -5.6475  -5.5116  -4.6519  -4.6265   4.0491   4.2816
     5.1984   5.2017

     occupation numbers 
     1.0000   1.0000   1.0000   1.0000   1.0000   1.0000   1.0000   1.0000
     1.0000   1.0000   1.0000   1.0000   1.0000   1.0000   1.0000   1.0000
     1.0000   1.0000   1.0000   1.0000   1.0000   1.0000   0.0000   0.0000
     0.0000   0.0000

     the Fermi energy is    -1.7481 ev

!    total energy              =    -240.24642641 Ry
     estimated scf accuracy    <       0.00000049 Ry
     smearing contrib. (-TS)   =       0.00000000 Ry
     internal energy E=F+TS    =    -240.24642641 Ry

     The total energy is F=E-TS. E is the sum of the following terms:
     one-electron contribution =   -1261.13638691 Ry
     hartree contribution      =     644.39912539 Ry
     xc contribution           =     -51.69323487 Ry
     ewald contribution        =     428.18406999 Ry

     convergence has been achieved in   5 iterations

     negative rho (up, down):  5.207E-06 0.000E+00

     Forces acting on atoms (cartesian axes, Ry/au):

     atom    1 type  1   force =    -0.00000000   -0.00010771   -0.00006406
     atom    2 type  1   force =     0.00000000   -0.00010771    0.00006406
     atom    3 type  1   force =     0.00000000    0.00010771   -0.00006406
     atom    4 type  1   force =     0.00000000    0.00010771    0.00006406
     atom    5 type  2   force =     0.00000000   -0.01037221   -0.00031178
     atom    6 type  2   force =     0.00000000   -0.01037221    0.00031178
     atom    7 type  2   force =     0.00000000    0.01037221   -0.00031178
     atom    8 type  2   force =     0.00000000    0.01037221    0.00031178
     The non-local contrib.  to forces
     atom    1 type  1   force =     0.00000000   -0.16673081    0.36456943
     atom    2 type  1   force =     0.00000000   -0.16673081   -0.36456943
     atom    3 type  1   force =     0.00000000    0.16673081    0.36456943
     atom    4 type  1   force =     0.00000000    0.16673081   -0.36456943
     atom    5 type  2   force =     0.00000000   -1.02305952    2.26160528
     atom    6 type  2   force =    -0.00000000   -1.02305952   -2.26160528
     atom    7 type  2   force =     0.00000000    1.02305952    2.26160528
     atom    8 type  2   force =     0.00000000    1.02305952   -2.26160528
     The ionic contribution  to forces
     atom    1 type  1   force =    -0.00000000    1.00218315    2.94366369
     atom    2 type  1   force =    -0.00000000    1.00218315   -2.94366369
     atom    3 type  1   force =     0.00000000   -1.00218315    2.94366369
     atom    4 type  1   force =     0.00000000   -1.00218315   -2.94366369
     atom    5 type  2   force =     0.00000000    3.87451832  -44.59922778
     atom    6 type  2   force =     0.00000000    3.87451832   44.59922778
     atom    7 type  2   force =    -0.00000000   -3.87451832  -44.59922778
     atom    8 type  2   force =     0.00000000   -3.87451832   44.59922778
     The local contribution  to forces
     atom    1 type  1   force =     0.00000000   -0.83655251   -3.30589732
     atom    2 type  1   force =     0.00000000   -0.83655251    3.30589732
     atom    3 type  1   force =    -0.00000000    0.83655251   -3.30589732
     atom    4 type  1   force =    -0.00000000    0.83655251    3.30589732
     atom    5 type  2   force =     0.00000000   -2.86196357   42.33903289
     atom    6 type  2   force =    -0.00000000   -2.86196357  -42.33903289
     atom    7 type  2   force =    -0.00000000    2.86196357   42.33903289
     atom    8 type  2   force =     0.00000000    2.86196357  -42.33903289
     The core correction contribution to forces
     atom    1 type  1   force =     0.00000000    0.00101069   -0.00268869
     atom    2 type  1   force =     0.00000000    0.00101069    0.00268869
     atom    3 type  1   force =    -0.00000000   -0.00101069   -0.00268869
     atom    4 type  1   force =    -0.00000000   -0.00101069    0.00268869
     atom    5 type  2   force =     0.00000000    0.00000000    0.00000000
     atom    6 type  2   force =     0.00000000    0.00000000    0.00000000
     atom    7 type  2   force =     0.00000000    0.00000000    0.00000000
     atom    8 type  2   force =     0.00000000    0.00000000    0.00000000
     The Hubbard contrib.    to forces
     atom    1 type  1   force =     0.00000000    0.00000000    0.00000000
     atom    2 type  1   force =     0.00000000    0.00000000    0.00000000
     atom    3 type  1   force =     0.00000000    0.00000000    0.00000000
     atom    4 type  1   force =     0.00000000    0.00000000    0.00000000
     atom    5 type  2   force =     0.00000000    0.00000000    0.00000000
     atom    6 type  2   force =     0.00000000    0.00000000    0.00000000
     atom    7 type  2   force =     0.00000000    0.00000000    0.00000000
     atom    8 type  2   force =     0.00000000    0.00000000    0.00000000
     The SCF correction term to forces
     atom    1 type  1   force =     0.00000000   -0.00001822    0.00028884
     atom    2 type  1   force =    -0.00000000   -0.00001822   -0.00028884
     atom    3 type  1   force =     0.00000000    0.00001822    0.00028884
     atom    4 type  1   force =     0.00000000    0.00001822   -0.00028884
     atom    5 type  2   force =    -0.00000000    0.00000000   -0.00172218
     atom    6 type  2   force =    -0.00000000    0.00000000    0.00172218
     atom    7 type  2   force =     0.00000000   -0.00000000   -0.00172218
     atom    8 type  2   force =    -0.00000000   -0.00000000    0.00172218

     Total force =     0.000672     Total SCF correction =     0.003493
     SCF correction compared to forces is large: reduce conv_thr to get better values


     Computing stress (Cartesian axis) and pressure


     negative rho (up, down):  5.207E-06 0.000E+00
          total   stress  (Ry/bohr**3)                   (kbar)     P=        0.72
   0.00000455   0.00000000   0.00000000            0.67        0.00        0.00
   0.00000000   0.00000435   0.00000000            0.00        0.64        0.00
   0.00000000   0.00000000   0.00000575            0.00        0.00        0.85

     kinetic stress (kbar)   9182.74      0.00      0.00
                                0.00   8991.01      0.00
                                0.00      0.00   8356.96

     local   stress (kbar)-162594.37     -0.00     -0.00
                               -0.00-164079.66     -0.00
                               -0.00     -0.00 157267.65

     nonloc. stress (kbar)   1187.06      0.00      0.00
                                0.00   1140.55      0.00
                                0.00      0.00    972.75

     hartree stress (kbar)  81572.58     -0.00      0.00
                               -0.00  82005.64      0.00
                                0.00      0.00 -75717.37

     exc-cor stress (kbar)  -2152.77      0.00     -0.00
                                0.00  -2148.47     -0.00
                               -0.00     -0.00  -2142.30

     corecor stress (kbar)    -74.01     -0.00     -0.00
                               -0.00    -73.84     -0.00
                               -0.00     -0.00    -72.90

     ewald   stress (kbar)  72879.45      0.00      0.00
                                0.00  74165.42     -0.00
                                0.00     -0.00 -88663.95

     hubbard stress (kbar)      0.00      0.00      0.00
                                0.00      0.00      0.00
                                0.00      0.00      0.00

     DFT-D   stress (kbar)      0.00      0.00      0.00
                                0.00      0.00      0.00
                                0.00      0.00      0.00

     XDM     stress (kbar)      0.00      0.00      0.00
                                0.00      0.00      0.00
                                0.00      0.00      0.00

     dft-nl  stress (kbar)      0.00      0.00      0.00
                                0.00      0.00      0.00
                                0.00      0.00      0.00

     TS-vdW  stress (kbar)      0.00      0.00      0.00
                                0.00      0.00      0.00
                                0.00      0.00      0.00

     MDB     stress (kbar)      0.00      0.00      0.00
                                0.00      0.00      0.00
                                0.00      0.00      0.00

     3D-RISM stress (kbar)      0.00      0.00      0.00
                                0.00      0.00      0.00
                                0.00      0.00      0.00

     Energy error            =      7.3E-08 Ry
     Gradient error          =      3.1E-04 Ry/Bohr
     Cell gradient error     =      8.5E-01 kbar

     number of scf cycles    =   2
     number of bfgs steps    =   1

     enthalpy           old  =    -240.2464264804 Ry
     enthalpy           new  =    -240.2464264078 Ry

     CASE: enthalpy          _new > enthalpy          _old

     new trust radius        =       0.0002918802 bohr
     new conv_thr            =       0.0000010000 Ry

     new unit-cell volume =   1078.78278 a.u.^3 (   159.85912 Ang^3 )
     density =      1.28843 g/cm^3

CELL_PARAMETERS (angstrom)
   2.628667595   0.000000000   0.000000000
   0.000000000   4.173286910   0.000000000
   0.000000000   0.000000000  14.572145237

ATOMIC_POSITIONS (crystal)
C             0.5000000000        0.1408823923        0.0354717434    0   1   1
C             0.0000000000        0.6408823923       -0.0354717434    0   1   1
C             0.0000000000        0.3591176077        0.0354717434    0   1   1
C             0.5000000000        0.8591176077       -0.0354717434    0   1   1
F             0.5000000000        0.0000000000       -0.1212196882    0   0   1
F             0.0000000000        0.5000000000        0.1212196882    0   0   1
F             0.0000000000        0.5000000000       -0.1212196882    0   0   1
F             0.5000000000        0.0000000000        0.1212196882    0   0   1



     Writing config-only to output data dir ../tmp/fgz.save/
     NEW-OLD atomic charge density approx. for the potential

     negative rho (up, down):  1.801E-05 0.000E+00
     extrapolated charge   43.99461, renormalised to   44.00000

     total cpu time spent up to now is     4735.6 secs

     Self-consistent Calculation

     iteration #  1     ecut=   600.00 Ry     beta= 0.70
     Davidson diagonalization with overlap

---- Real-time Memory Report at c_bands before calling an iterative solver
           195 MiB given to the printing process from OS
             0 MiB allocation reported by mallinfo(arena+hblkhd)
        343397 MiB available memory on the node where the printing process lives
------------------
     ethr =  1.00E-06,  avg # of iterations =  2.0

     Threshold (ethr) on eigenvalues was too large:
     Diagonalizing with lowered threshold

     Davidson diagonalization with overlap

---- Real-time Memory Report at c_bands before calling an iterative solver
           195 MiB given to the printing process from OS
             0 MiB allocation reported by mallinfo(arena+hblkhd)
        343398 MiB available memory on the node where the printing process lives
------------------
     ethr =  4.49E-09,  avg # of iterations =  1.0

     negative rho (up, down):  6.684E-06 0.000E+00

     total cpu time spent up to now is     5186.9 secs

     total energy              =    -240.24642127 Ry
     estimated scf accuracy    <       0.00000195 Ry

     iteration #  2     ecut=   600.00 Ry     beta= 0.70
     Davidson diagonalization with overlap

---- Real-time Memory Report at c_bands before calling an iterative solver
           195 MiB given to the printing process from OS
             0 MiB allocation reported by mallinfo(arena+hblkhd)
        343408 MiB available memory on the node where the printing process lives
------------------
     ethr =  4.43E-09,  avg # of iterations =  4.0

     negative rho (up, down):  6.017E-06 0.000E+00

     total cpu time spent up to now is     5609.9 secs

     total energy              =    -240.24642712 Ry
     estimated scf accuracy    <       0.00000797 Ry

     iteration #  3     ecut=   600.00 Ry     beta= 0.70
     Davidson diagonalization with overlap

---- Real-time Memory Report at c_bands before calling an iterative solver
           195 MiB given to the printing process from OS
             0 MiB allocation reported by mallinfo(arena+hblkhd)
        343386 MiB available memory on the node where the printing process lives
------------------
     ethr =  4.43E-09,  avg # of iterations =  2.0

     negative rho (up, down):  5.691E-06 0.000E+00

     total cpu time spent up to now is     5866.0 secs

     total energy              =    -240.24642720 Ry
     estimated scf accuracy    <       0.00000214 Ry

     iteration #  4     ecut=   600.00 Ry     beta= 0.70
     Davidson diagonalization with overlap

---- Real-time Memory Report at c_bands before calling an iterative solver
           195 MiB given to the printing process from OS
             0 MiB allocation reported by mallinfo(arena+hblkhd)
        343392 MiB available memory on the node where the printing process lives
------------------
     ethr =  4.43E-09,  avg # of iterations =  1.0

     negative rho (up, down):  5.227E-06 0.000E+00

     total cpu time spent up to now is     6044.6 secs

     total energy              =    -240.24642670 Ry
     estimated scf accuracy    <       0.00000129 Ry

     iteration #  5     ecut=   600.00 Ry     beta= 0.70
     Davidson diagonalization with overlap

---- Real-time Memory Report at c_bands before calling an iterative solver
           195 MiB given to the printing process from OS
             0 MiB allocation reported by mallinfo(arena+hblkhd)
        343396 MiB available memory on the node where the printing process lives
------------------
     ethr =  2.93E-09,  avg # of iterations =  2.0

     negative rho (up, down):  5.199E-06 0.000E+00

     total cpu time spent up to now is     6300.0 secs

     End of self-consistent calculation

          k = 0.0000 0.0000 0.0000 (267837 PWs)   bands (ev):

   -28.1338 -27.8500 -26.6152 -26.4973 -18.7959 -15.5251 -13.5173 -11.1255
   -10.3270  -9.9338  -8.6428  -8.2497  -7.5910  -7.5371  -7.2627  -5.4075
    -5.2643  -5.1936  -4.5641  -4.2599  -4.0158  -2.6989   0.8374   3.3040
     3.4380   4.4770

     occupation numbers 
     1.0000   1.0000   1.0000   1.0000   1.0000   1.0000   1.0000   1.0000
     1.0000   1.0000   1.0000   1.0000   1.0000   1.0000   1.0000   1.0000
     1.0000   1.0000   1.0000   1.0000   1.0000   1.0000   0.0000   0.0000
     0.0000   0.0000

          k = 0.0000 0.0700 0.0000 (267845 PWs)   bands (ev):

   -28.1017 -27.8252 -26.6549 -26.5340 -18.7339 -15.7373 -13.3481 -11.0788
   -10.2055  -9.9797  -8.5922  -8.2594  -7.6880  -7.4464  -7.2732  -5.4628
    -5.3364  -5.3047  -4.6220  -4.2114  -3.9720  -2.7460   0.9854   3.3311
     3.4335   4.6581

     occupation numbers 
     1.0000   1.0000   1.0000   1.0000   1.0000   1.0000   1.0000   1.0000
     1.0000   1.0000   1.0000   1.0000   1.0000   1.0000   1.0000   1.0000
     1.0000   1.0000   1.0000   1.0000   1.0000   1.0000   0.0000   0.0000
     0.0000   0.0000

          k = 0.0000 0.1400 0.0000 (267799 PWs)   bands (ev):

   -28.0100 -27.7578 -26.7615 -26.6356 -18.5497 -16.2230 -12.9628 -11.0182
   -10.0348  -9.8902  -8.4452  -8.3020  -7.9587  -7.3205  -7.2005  -5.6420
    -5.5921  -5.4098  -4.7435  -4.1824  -3.8528  -2.8742   1.3854   3.4050
     3.4107   5.1667

     occupation numbers 
     1.0000   1.0000   1.0000   1.0000   1.0000   1.0000   1.0000   1.0000
     1.0000   1.0000   1.0000   1.0000   1.0000   1.0000   1.0000   1.0000
     1.0000   1.0000   1.0000   1.0000   1.0000   1.0000   0.0000   0.0000
     0.0000   0.0000

          k = 0.0000 0.2100 0.0000 (267686 PWs)   bands (ev):

   -27.8741 -27.6758 -26.8933 -26.7769 -18.2494 -16.7923 -12.4945 -11.1594
    -9.8797  -9.4954  -8.4119  -8.3592  -8.2178  -7.4433  -6.8606  -5.9636
    -5.7073  -5.5440  -4.8143  -4.2880  -3.6818  -3.0562   1.9389   3.2998
     3.5410   4.4213

     occupation numbers 
     1.0000   1.0000   1.0000   1.0000   1.0000   1.0000   1.0000   1.0000
     1.0000   1.0000   1.0000   1.0000   1.0000   1.0000   1.0000   1.0000
     1.0000   1.0000   1.0000   1.0000   1.0000   1.0000   0.0000   0.0000
     0.0000   0.0000

          k = 0.0000 0.2799 0.0000 (267766 PWs)   bands (ev):

   -27.7293 -27.6458 -26.9679 -26.9128 -17.8434 -17.3485 -12.0007 -11.5296
    -9.5031  -9.2208  -8.7259  -8.6108  -7.9401  -7.6615  -6.5270  -6.2464
    -5.7342  -5.6668  -4.7347  -4.5136  -3.4800  -3.2653   2.5309   3.0226
     3.7295   4.0154

     occupation numbers 
     1.0000   1.0000   1.0000   1.0000   1.0000   1.0000   1.0000   1.0000
     1.0000   1.0000   1.0000   1.0000   1.0000   1.0000   1.0000   1.0000
     1.0000   1.0000   1.0000   1.0000   1.0000   1.0000   0.0000   0.0000
     0.0000   0.0000

          k = 0.1111 0.0000 0.0000 (267853 PWs)   bands (ev):

   -28.0500 -27.7764 -26.6126 -26.4969 -18.6415 -15.3736 -13.4567 -10.9984
   -10.2520  -9.9535  -9.3314  -8.3516  -7.7193  -7.5560  -7.4447  -5.7500
    -5.5505  -5.2909  -4.6858  -4.3327  -4.1567  -3.2372   1.0809   4.0931
[...]
     1.0000   1.0000   1.0000   1.0000   1.0000   1.0000   1.0000   1.0000
     1.0000   1.0000   1.0000   1.0000   1.0000   1.0000   0.0000   0.0000
     0.0000   0.0000

          k = 0.2222 0.2799 0.0000 (267704 PWs)   bands (ev):

   -27.4837 -27.4122 -26.8806 -26.8321 -17.2688 -16.7884 -12.0410 -11.5894
   -10.3469 -10.2759  -9.2026  -9.1349  -8.3838  -8.3160  -6.4086  -6.1553
    -6.0359  -5.8776  -4.9771  -4.9306  -4.3928  -4.3373   3.0755   3.7768
     5.7928   6.0461

     occupation numbers 
     1.0000   1.0000   1.0000   1.0000   1.0000   1.0000   1.0000   1.0000
     1.0000   1.0000   1.0000   1.0000   1.0000   1.0000   1.0000   1.0000
     1.0000   1.0000   1.0000   1.0000   1.0000   1.0000   0.0000   0.0000
     0.0000   0.0000

          k = 0.3333 0.0000 0.0000 (267639 PWs)   bands (ev):

   -27.4892 -27.2850 -26.6922 -26.5782 -17.4297 -14.2070 -13.9036 -11.4328
   -10.9008 -10.2119  -9.8118  -9.3693  -9.3230  -8.0437  -7.0959  -6.4342
    -6.3998  -6.3419  -5.8818  -4.8988  -4.7599  -4.4936   2.4282   4.0001
     5.6266   6.9652

     occupation numbers 
     1.0000   1.0000   1.0000   1.0000   1.0000   1.0000   1.0000   1.0000
     1.0000   1.0000   1.0000   1.0000   1.0000   1.0000   1.0000   1.0000
     1.0000   1.0000   1.0000   1.0000   1.0000   1.0000   0.0000   0.0000
     0.0000   0.0000

          k = 0.3333 0.0700 0.0000 (267619 PWs)   bands (ev):

   -27.4698 -27.2709 -26.7096 -26.5956 -17.3738 -14.5144 -13.7218 -11.3311
   -11.0908 -10.2537  -9.7394  -9.5099  -9.0540  -8.1615  -7.0054  -6.5054
    -6.4269  -6.1785  -5.7386  -5.0473  -4.7292  -4.4601   2.4910   4.1050
     5.5849   6.7676

     occupation numbers 
     1.0000   1.0000   1.0000   1.0000   1.0000   1.0000   1.0000   1.0000
     1.0000   1.0000   1.0000   1.0000   1.0000   1.0000   1.0000   1.0000
     1.0000   1.0000   1.0000   1.0000   1.0000   1.0000   0.0000   0.0000
     0.0000   0.0000

          k = 0.3333 0.1400 0.0000 (267638 PWs)   bands (ev):

   -27.4147 -27.2335 -26.7562 -26.6444 -17.2076 -15.0300 -13.4903 -11.5209
   -11.1123 -10.3634  -9.5847  -9.5685  -8.7351  -8.3500  -6.8476  -6.5527
    -6.4000  -5.8802  -5.4915  -5.3236  -4.6544  -4.4791   2.6894   4.3716
     5.4379   6.2741

     occupation numbers 
     1.0000   1.0000   1.0000   1.0000   1.0000   1.0000   1.0000   1.0000
     1.0000   1.0000   1.0000   1.0000   1.0000   1.0000   1.0000   1.0000
     1.0000   1.0000   1.0000   1.0000   1.0000   1.0000   0.0000   0.0000
     0.0000   0.0000

          k = 0.3333 0.2100 0.0000 (267641 PWs)   bands (ev):

   -27.3336 -27.1917 -26.8117 -26.7152 -16.9351 -15.5826 -13.2263 -12.0164
   -10.8936 -10.4804  -9.6022  -9.5162  -8.4801  -8.3953  -6.7437  -6.4129
    -6.4032  -5.5889  -5.5661  -5.3206  -4.5794  -4.5603   3.0431   4.5383
     5.2556   5.8725

     occupation numbers 
     1.0000   1.0000   1.0000   1.0000   1.0000   1.0000   1.0000   1.0000
     1.0000   1.0000   1.0000   1.0000   1.0000   1.0000   1.0000   1.0000
     1.0000   1.0000   1.0000   1.0000   1.0000   1.0000   0.0000   0.0000
     0.0000   0.0000

          k = 0.3333 0.2799 0.0000 (267713 PWs)   bands (ev):

   -27.2459 -27.1872 -26.8322 -26.7893 -16.5638 -16.1060 -12.8956 -12.4881
   -10.7185 -10.5890  -9.6105  -9.5673  -8.3404  -8.3326  -6.6428  -6.5068
    -6.1237  -5.8146  -5.3834  -5.2908  -4.5828  -4.5556   3.5524   4.1450
     5.3711   5.5853

     occupation numbers 
     1.0000   1.0000   1.0000   1.0000   1.0000   1.0000   1.0000   1.0000
     1.0000   1.0000   1.0000   1.0000   1.0000   1.0000   1.0000   1.0000
     1.0000   1.0000   1.0000   1.0000   1.0000   1.0000   0.0000   0.0000
     0.0000   0.0000

          k = 0.4444 0.0000 0.0000 (267622 PWs)   bands (ev):

   -27.1438 -26.9821 -26.8628 -26.7332 -16.3969 -15.1401 -13.2465 -12.1011
   -11.1727 -10.5371  -9.6194  -9.4963  -9.2029  -8.5851  -7.2038  -6.9474
    -6.3890  -6.2509  -6.0324  -5.4850  -4.8513  -4.7747   3.3248   4.4158
     4.6983   5.8241

     occupation numbers 
     1.0000   1.0000   1.0000   1.0000   1.0000   1.0000   1.0000   1.0000
     1.0000   1.0000   1.0000   1.0000   1.0000   1.0000   1.0000   1.0000
     1.0000   1.0000   1.0000   1.0000   1.0000   1.0000   0.0000   0.0000
     0.0000   0.0000

          k = 0.4444 0.0700 0.0000 (267656 PWs)   bands (ev):

   -27.1350 -26.9778 -26.8655 -26.7386 -16.3470 -15.1071 -13.4462 -12.3182
   -11.0419 -10.4554  -9.6622  -9.6379  -9.0038  -8.6029  -7.0667  -6.8182
    -6.4483  -6.4255  -5.8534  -5.5461  -4.7952  -4.7054   3.3697   4.4404
     4.7025   5.6831

     occupation numbers 
     1.0000   1.0000   1.0000   1.0000   1.0000   1.0000   1.0000   1.0000
     1.0000   1.0000   1.0000   1.0000   1.0000   1.0000   1.0000   1.0000
     1.0000   1.0000   1.0000   1.0000   1.0000   1.0000   0.0000   0.0000
     0.0000   0.0000

          k = 0.4444 0.1400 0.0000 (267651 PWs)   bands (ev):

   -27.1104 -26.9697 -26.8701 -26.7543 -16.1986 -15.0268 -13.8640 -12.7890
   -10.8107 -10.3780  -9.8458  -9.7233  -8.6994  -8.5458  -6.7566  -6.6821
    -6.5523  -6.4856  -5.6438  -5.5968  -4.6815  -4.6215   3.5134   4.4842
     4.7628   5.4222

     occupation numbers 
     1.0000   1.0000   1.0000   1.0000   1.0000   1.0000   1.0000   1.0000
     1.0000   1.0000   1.0000   1.0000   1.0000   1.0000   1.0000   1.0000
     1.0000   1.0000   1.0000   1.0000   1.0000   1.0000   0.0000   0.0000
     0.0000   0.0000

          k = 0.4444 0.2100 0.0000 (267689 PWs)   bands (ev):

   -27.0744 -26.9726 -26.8645 -26.7790 -15.9564 -15.0134 -14.1835 -13.3051
   -10.6450 -10.4211  -9.9262  -9.8495  -8.4349  -8.3903  -6.8631  -6.7306
    -6.3531  -6.0750  -5.5883  -5.5063  -4.6221  -4.6112   3.7603   4.4304
     4.9898   5.2374

     occupation numbers 
     1.0000   1.0000   1.0000   1.0000   1.0000   1.0000   1.0000   1.0000
     1.0000   1.0000   1.0000   1.0000   1.0000   1.0000   1.0000   1.0000
     1.0000   1.0000   1.0000   1.0000   1.0000   1.0000   0.0000   0.0000
     0.0000   0.0000

          k = 0.4444 0.2799 0.0000 (267655 PWs)   bands (ev):

   -27.0337 -26.9964 -26.8413 -26.8098 -15.6331 -15.2685 -14.1103 -13.7683
   -10.5585 -10.4973  -9.9491  -9.9314  -8.2831  -8.2733  -6.9246  -6.8740
    -5.9644  -5.7454  -5.6420  -5.5063  -4.6480  -4.6225   4.0530   4.2854
     5.2054   5.2081

     occupation numbers 
     1.0000   1.0000   1.0000   1.0000   1.0000   1.0000   1.0000   1.0000
     1.0000   1.0000   1.0000   1.0000   1.0000   1.0000   1.0000   1.0000
     1.0000   1.0000   1.0000   1.0000   1.0000   1.0000   0.0000   0.0000
     0.0000   0.0000

     the Fermi energy is    -1.7419 ev

!    total energy              =    -240.24642681 Ry
     estimated scf accuracy    <          3.7E-10 Ry
     smearing contrib. (-TS)   =       0.00000000 Ry
     internal energy E=F+TS    =    -240.24642681 Ry

     The total energy is F=E-TS. E is the sum of the following terms:
     one-electron contribution =   -1261.23809927 Ry
     hartree contribution      =     644.44569799 Ry
     xc contribution           =     -51.69308879 Ry
     ewald contribution        =     428.23906326 Ry

     convergence has been achieved in   5 iterations

     negative rho (up, down):  5.199E-06 0.000E+00

     Forces acting on atoms (cartesian axes, Ry/au):

     atom    1 type  1   force =     0.00000000   -0.00001810    0.00012343
     atom    2 type  1   force =     0.00000000   -0.00001810   -0.00012343
     atom    3 type  1   force =     0.00000000    0.00001810    0.00012343
     atom    4 type  1   force =     0.00000000    0.00001810   -0.00012343
     atom    5 type  2   force =     0.00000000   -0.01047866    0.00004222
     atom    6 type  2   force =    -0.00000000   -0.01047866   -0.00004222
     atom    7 type  2   force =     0.00000000    0.01047866    0.00004222
     atom    8 type  2   force =     0.00000000    0.01047866   -0.00004222
     The non-local contrib.  to forces
     atom    1 type  1   force =    -0.00000000   -0.16675068    0.36466550
     atom    2 type  1   force =     0.00000000   -0.16675068   -0.36466550
     atom    3 type  1   force =     0.00000000    0.16675068    0.36466550
     atom    4 type  1   force =     0.00000000    0.16675068   -0.36466550
     atom    5 type  2   force =     0.00000000   -1.02284750    2.26142222
     atom    6 type  2   force =     0.00000000   -1.02284750   -2.26142222
     atom    7 type  2   force =    -0.00000000    1.02284750    2.26142222
     atom    8 type  2   force =    -0.00000000    1.02284750   -2.26142222
     The ionic contribution  to forces
     atom    1 type  1   force =    -0.00000000    1.00143216    2.94510357
     atom    2 type  1   force =    -0.00000000    1.00143216   -2.94510357
     atom    3 type  1   force =    -0.00000000   -1.00143216    2.94510357
     atom    4 type  1   force =     0.00000000   -1.00143216   -2.94510357
     atom    5 type  2   force =    -0.00000000    3.87356406  -44.60577220
     atom    6 type  2   force =    -0.00000000    3.87356406   44.60577220
     atom    7 type  2   force =    -0.00000000   -3.87356406  -44.60577220
     atom    8 type  2   force =    -0.00000000   -3.87356406   44.60577220
     The local contribution  to forces
     atom    1 type  1   force =     0.00000000   -0.83570936   -3.30698050
     atom    2 type  1   force =     0.00000000   -0.83570936    3.30698050
     atom    3 type  1   force =    -0.00000000    0.83570936   -3.30698050
     atom    4 type  1   force =    -0.00000000    0.83570936    3.30698050
     atom    5 type  2   force =     0.00000000   -2.86119310   42.34435878
     atom    6 type  2   force =     0.00000000   -2.86119310  -42.34435878
     atom    7 type  2   force =     0.00000000    2.86119310   42.34435878
     atom    8 type  2   force =     0.00000000    2.86119310  -42.34435878
     The core correction contribution to forces
     atom    1 type  1   force =    -0.00000000    0.00101178   -0.00269133
     atom    2 type  1   force =    -0.00000000    0.00101178    0.00269133
     atom    3 type  1   force =     0.00000000   -0.00101178   -0.00269133
     atom    4 type  1   force =     0.00000000   -0.00101178    0.00269133
     atom    5 type  2   force =     0.00000000    0.00000000    0.00000000
     atom    6 type  2   force =     0.00000000    0.00000000    0.00000000
     atom    7 type  2   force =     0.00000000    0.00000000    0.00000000
     atom    8 type  2   force =     0.00000000    0.00000000    0.00000000
     The Hubbard contrib.    to forces
     atom    1 type  1   force =     0.00000000    0.00000000    0.00000000
     atom    2 type  1   force =     0.00000000    0.00000000    0.00000000
     atom    3 type  1   force =     0.00000000    0.00000000    0.00000000
     atom    4 type  1   force =     0.00000000    0.00000000    0.00000000
     atom    5 type  2   force =     0.00000000    0.00000000    0.00000000
     atom    6 type  2   force =     0.00000000    0.00000000    0.00000000
     atom    7 type  2   force =     0.00000000    0.00000000    0.00000000
     atom    8 type  2   force =     0.00000000    0.00000000    0.00000000
     The SCF correction term to forces
     atom    1 type  1   force =     0.00000000   -0.00000200    0.00002619
     atom    2 type  1   force =     0.00000000   -0.00000200   -0.00002619
     atom    3 type  1   force =     0.00000000    0.00000200    0.00002619
     atom    4 type  1   force =     0.00000000    0.00000200   -0.00002619
     atom    5 type  2   force =    -0.00000000   -0.00000000    0.00003343
     atom    6 type  2   force =    -0.00000000   -0.00000000   -0.00003343
     atom    7 type  2   force =    -0.00000000    0.00000000    0.00003343
     atom    8 type  2   force =    -0.00000000    0.00000000   -0.00003343

     Total force =     0.000263     Total SCF correction =     0.000085
     SCF correction compared to forces is large: reduce conv_thr to get better values


     Computing stress (Cartesian axis) and pressure


     negative rho (up, down):  5.199E-06 0.000E+00
          total   stress  (Ry/bohr**3)                   (kbar)     P=       -0.08
  -0.00000049   0.00000000   0.00000000           -0.07        0.00        0.00
   0.00000000  -0.00000044   0.00000000            0.00       -0.06        0.00
   0.00000000   0.00000000  -0.00000067            0.00        0.00       -0.10

     kinetic stress (kbar)   9184.76      0.00      0.00
                                0.00   8993.03      0.00
                                0.00      0.00   8358.63

     local   stress (kbar)-162647.40      0.00     -0.00
                                0.00-164132.34      0.00
                               -0.00      0.00 157322.19

     nonloc. stress (kbar)   1186.59      0.00      0.00
                                0.00   1140.12      0.00
                                0.00      0.00    972.35

     hartree stress (kbar)  81598.14      0.00      0.00
                                0.00  82031.09     -0.00
                                0.00     -0.00 -75742.83

     exc-cor stress (kbar)  -2153.23      0.00      0.00
                                0.00  -2148.93     -0.00
                                0.00     -0.00  -2142.77

     corecor stress (kbar)    -74.03      0.00      0.00
                                0.00    -73.86      0.00
                                0.00      0.00    -72.91

     ewald   stress (kbar)  72905.11      0.00      0.00
                                0.00  74190.83     -0.00
                                0.00     -0.00 -88694.76

     hubbard stress (kbar)      0.00      0.00      0.00
                                0.00      0.00      0.00
                                0.00      0.00      0.00

     DFT-D   stress (kbar)      0.00      0.00      0.00
                                0.00      0.00      0.00
                                0.00      0.00      0.00

     XDM     stress (kbar)      0.00      0.00      0.00
                                0.00      0.00      0.00
                                0.00      0.00      0.00

     dft-nl  stress (kbar)      0.00      0.00      0.00
                                0.00      0.00      0.00
                                0.00      0.00      0.00

     TS-vdW  stress (kbar)      0.00      0.00      0.00
                                0.00      0.00      0.00
                                0.00      0.00      0.00

     MDB     stress (kbar)      0.00      0.00      0.00
                                0.00      0.00      0.00
                                0.00      0.00      0.00

     3D-RISM stress (kbar)      0.00      0.00      0.00
                                0.00      0.00      0.00
                                0.00      0.00      0.00

     Message from routine bfgs:
     history already reset at previous step: exiting
     Energy error            =      1.1E-08 Ry
     Gradient error          =      1.2E-04 Ry/Bohr
     Cell gradient error     =      9.8E-02 kbar

     bfgs failed after   7 scf cycles and   5 bfgs steps, convergence not achieved
     (criteria: energy <  5.0E-05 Ry, force <  1.0E-05 Ry/Bohr, cell <  5.0E-02 kbar)

     End of BFGS Geometry Optimization

     Final enthalpy           =    -240.2464268062 Ry

     File ../tmp/fgz.bfgs deleted, as requested
Begin final coordinates
     new unit-cell volume =   1078.67937 a.u.^3 (   159.84379 Ang^3 )
     density =      1.28855 g/cm^3

CELL_PARAMETERS (angstrom)
   2.628539380   0.000000000   0.000000000
   0.000000000   4.173130918   0.000000000
   0.000000000   0.000000000  14.572003719

ATOMIC_POSITIONS (crystal)
C             0.5000000000        0.1408824054        0.0354667267    0   1   1
C             0.0000000000        0.6408824054       -0.0354667267    0   1   1
C             0.0000000000        0.3591175946        0.0354667267    0   1   1
C             0.5000000000        0.8591175946       -0.0354667267    0   1   1
F             0.5000000000        0.0000000000       -0.1212195850    0   0   1
F             0.0000000000        0.5000000000        0.1212195850    0   0   1
F             0.0000000000        0.5000000000       -0.1212195850    0   0   1
F             0.5000000000        0.0000000000        0.1212195850    0   0   1
End final coordinates



     Writing config-only to output data dir ../tmp/fgz.save/

     Writing all to output data dir ../tmp/fgz.save/

     init_run     :     44.64s CPU     83.66s WALL (       1 calls)
     electrons    :   6332.83s CPU  11759.94s WALL (       7 calls)
     update_pot   :      4.63s CPU      4.66s WALL (       6 calls)
     forces       :    347.60s CPU    650.13s WALL (       7 calls)
     stress       :    154.72s CPU    309.60s WALL (       7 calls)

     Called by init_run:
     wfcinit      :     42.76s CPU     81.43s WALL (       1 calls)
     wfcinit:atom :      0.02s CPU      0.01s WALL (      25 calls)
     wfcinit:wfcr :     42.15s CPU     80.19s WALL (      25 calls)
     potinit      :      0.28s CPU      0.29s WALL (       1 calls)
     hinit0       :      0.69s CPU      0.72s WALL (       1 calls)

     Called by electrons:
     c_bands      :   6080.27s CPU  11164.13s WALL (      41 calls)
     sum_band     :    243.11s CPU    575.13s WALL (      41 calls)
     v_of_rho     :      1.29s CPU      1.46s WALL (      41 calls)
     v_h          :      0.09s CPU      0.11s WALL (      41 calls)
     v_xc         :      1.59s CPU      1.77s WALL (      55 calls)
     newd         :      7.35s CPU     16.68s WALL (      41 calls)
     mix_rho      :      0.23s CPU      0.25s WALL (      41 calls)

     Called by c_bands:
     init_us_2    :      1.93s CPU      4.99s WALL (    2425 calls)
     init_us_2:cp :      1.92s CPU      4.82s WALL (    2425 calls)
     cegterg      :   5728.38s CPU  10453.76s WALL (    1025 calls)

     Called by sum_band:
     sum_band:wei :      0.00s CPU      0.00s WALL (      41 calls)
     sum_band:loo :    230.42s CPU    546.09s WALL (      41 calls)
     sum_band:buf :      0.25s CPU      0.51s WALL (    1025 calls)
     sum_band:ini :      0.60s CPU      1.17s WALL (    1025 calls)
     sum_band:cal :    205.57s CPU    514.98s WALL (    1025 calls)
     sum_band:bec :      0.01s CPU      0.02s WALL (    1025 calls)
     addusdens    :      4.71s CPU     18.81s WALL (      41 calls)
     addusd:skk   :      0.07s CPU      0.41s WALL (      82 calls)
     addusd:dgemm :      3.09s CPU     13.70s WALL (      82 calls)
     addusd:qvan2 :      1.45s CPU      4.51s WALL (      82 calls)

     Called by *egterg:
     cdiaghg      :    486.04s CPU    498.40s WALL (    3132 calls)
     cegterg:over :   1899.00s CPU   3078.58s WALL (    2432 calls)
     cegterg:upda :    129.70s CPU    282.82s WALL (    2432 calls)
     cegterg:last :    154.05s CPU    315.26s WALL (    2061 calls)
     h_psi        :   1331.47s CPU   3260.30s WALL (    3482 calls)
     s_psi        :     44.68s CPU    114.89s WALL (    3482 calls)
     g_psi        :      0.69s CPU      0.44s WALL (    2432 calls)

     Called by h_psi:
     h_psi:calbec :    855.11s CPU   2151.97s WALL (    3482 calls)
     vloc_psi     :    251.43s CPU    289.05s WALL (    3482 calls)
     add_vuspsi   :    224.30s CPU    817.40s WALL (    3482 calls)

     General routines
     calbec       :   1504.20s CPU   3480.06s WALL (    5382 calls)
     fft          :      2.69s CPU      3.02s WALL (     639 calls)
     ffts         :      0.50s CPU      0.54s WALL (      41 calls)
     fftw         :    268.43s CPU    307.22s WALL (  164674 calls)
     davcio       :      0.00s CPU      0.03s WALL (      25 calls)

     Parallel routines

     PWSCF        :      1h54m CPU      3h33m WALL


   This run was terminated on:   8:28:17  17Jan2024            

=------------------------------------------------------------------------------=
   JOB DONE.
=------------------------------------------------------------------------------=
