
     Program PWSCF v.7.1 starts on 18Jan2024 at  8:14: 2 

     This program is part of the open-source Quantum ESPRESSO suite
     for quantum simulation of materials; please cite
         "P. Giannozzi et al., J. Phys.:Condens. Matter 21 395502 (2009);
         "P. Giannozzi et al., J. Phys.:Condens. Matter 29 465901 (2017);
         "P. Giannozzi et al., J. Chem. Phys. 152 154105 (2020);
          URL http://www.quantum-espresso.org", 
     in publications or presentations arising from this work. More details at
     http://www.quantum-espresso.org/quote

     Parallel version (MPI), running on    88 processors

     MPI processes distributed on     1 nodes
     351316 MiB available memory on the printing compute node when the environment starts

     Reading input from vc-relax2.in

     Current dimensions of program PWSCF are:
     Max number of different atomic species (ntypx) = 10
     Max number of k-points (npk) =  40000
     Max angular momentum in pseudopotentials (lmaxx) =  4
     Message from routine setup:
     using ibrav=0 with symmetry is DISCOURAGED, use correct ibrav instead

     R & G space division:  proc/nbgrp/npool/nimage =      88
     Subspace diagonalization in iterative solution of the eigenvalue problem:
     a serial algorithm will be used


     Parallelization info
     --------------------
     sticks:   dense  smooth     PW     G-vecs:    dense   smooth      PW
     Min          84      84     22                24308    24308    3286
     Max          85      85     23                24351    24351    3305
     Sum        7471    7471   1969              2141723  2141723  290089

     Using Slab Decomposition



     bravais-lattice index     =            0
     lattice parameter (alat)  =       4.9672  a.u.
     unit-cell volume          =    1078.6315 (a.u.)^3
     number of atoms/cell      =            8
     number of atomic types    =            2
     number of electrons       =        44.00
     number of Kohn-Sham states=           26
     kinetic-energy cutoff     =     600.0000  Ry
     charge density cutoff     =    2400.0000  Ry
     scf convergence threshold =      1.0E-12
     mixing beta               =       0.7000
     number of iterations used =            8  plain     mixing
     energy convergence thresh.=      1.0E-07
     force convergence thresh. =      1.0E-06
     press convergence thresh. =      1.0E-02
     Exchange-correlation=  SLA  PW   PBX  PBC
                           (   1   4   3   4   0   0   0)
     nstep                     =           50


     celldm(1)=   4.967167  celldm(2)=   0.000000  celldm(3)=   0.000000
     celldm(4)=   0.000000  celldm(5)=   0.000000  celldm(6)=   0.000000

     crystal axes: (cart. coord. in units of alat)
               a(1) = (   1.000000   0.000000   0.000000 )  
               a(2) = (   0.000000   1.587606   0.000000 )  
               a(3) = (   0.000000   0.000000   5.543757 )  

     reciprocal axes: (cart. coord. in units 2 pi/alat)
               b(1) = (  1.000000  0.000000  0.000000 )  
               b(2) = (  0.000000  0.629879  0.000000 )  
               b(3) = (  0.000000  0.000000  0.180383 )  


     PseudoPot. # 1 for C  read from file:
     ../pseudo/c_pbe_v1.2.uspp.F.UPF
     MD5 check sum: d1aef80898a10debaa0f26306b886e00
     Pseudo is Ultrasoft + core correction, Zval =  4.0
     Generated by new atomic code, or converted to UPF format
     Using radial grid of  721 points,  4 beta functions with: 
                l(1) =   0
                l(2) =   0
                l(3) =   1
                l(4) =   1
     Q(r) pseudized with  8 coefficients,  rinner =    1.100   1.100   1.100


     PseudoPot. # 2 for F  read from file:
     ../pseudo/f_pbe_v1.4.uspp.F.UPF
     MD5 check sum: 4c38b6a325caf53ec0e86aed9459de46
     Pseudo is Ultrasoft, Zval =  7.0
     Generated by new atomic code, or converted to UPF format
     Using radial grid of  799 points,  4 beta functions with: 
                l(1) =   0
                l(2) =   0
                l(3) =   1
                l(4) =   1
     Q(r) pseudized with  8 coefficients,  rinner =    0.950   0.950   0.950


     atomic species   valence    mass     pseudopotential
        C              4.00    12.01070     C ( 1.00)
        F              7.00    18.99840     F ( 1.00)

      8 Sym. Ops., with inversion, found ( 4 have fractional translation)


                                    s                        frac. trans.

      isym =  1     identity                                     

 cryst.   s( 1) = (     1          0          0      )
                  (     0          1          0      )
                  (     0          0          1      )

 cart.    s( 1) = (  1.0000000  0.0000000  0.0000000 )
                  (  0.0000000  1.0000000  0.0000000 )
                  (  0.0000000  0.0000000  1.0000000 )


      isym =  2     180 deg rotation - cart. axis [0,0,1]        

 cryst.   s( 2) = (    -1          0          0      )    f =(  0.5000000 )
                  (     0         -1          0      )       (  0.5000000 )
                  (     0          0          1      )       (  0.0000000 )

 cart.    s( 2) = ( -1.0000000  0.0000000  0.0000000 )    f =(  0.5000000 )
                  (  0.0000000 -1.0000000  0.0000000 )       (  0.7938028 )
                  (  0.0000000  0.0000000  1.0000000 )       (  0.0000000 )


      isym =  3     180 deg rotation - cart. axis [0,1,0]        

 cryst.   s( 3) = (    -1          0          0      )    f =(  0.5000000 )
                  (     0          1          0      )       ( -0.5000000 )
                  (     0          0         -1      )       (  0.0000000 )

 cart.    s( 3) = ( -1.0000000  0.0000000  0.0000000 )    f =(  0.5000000 )
                  (  0.0000000  1.0000000  0.0000000 )       ( -0.7938028 )
                  (  0.0000000  0.0000000 -1.0000000 )       (  0.0000000 )


      isym =  4     180 deg rotation - cart. axis [1,0,0]        

 cryst.   s( 4) = (     1          0          0      )
                  (     0         -1          0      )
                  (     0          0         -1      )

 cart.    s( 4) = (  1.0000000  0.0000000  0.0000000 )
                  (  0.0000000 -1.0000000  0.0000000 )
                  (  0.0000000  0.0000000 -1.0000000 )


      isym =  5     inversion                                    

 cryst.   s( 5) = (    -1          0          0      )
                  (     0         -1          0      )
                  (     0          0         -1      )

 cart.    s( 5) = ( -1.0000000  0.0000000  0.0000000 )
                  (  0.0000000 -1.0000000  0.0000000 )
                  (  0.0000000  0.0000000 -1.0000000 )


      isym =  6     inv. 180 deg rotation - cart. axis [0,0,1]   

 cryst.   s( 6) = (     1          0          0      )    f =(  0.5000000 )
                  (     0          1          0      )       ( -0.5000000 )
                  (     0          0         -1      )       (  0.0000000 )

 cart.    s( 6) = (  1.0000000  0.0000000  0.0000000 )    f =(  0.5000000 )
                  (  0.0000000  1.0000000  0.0000000 )       ( -0.7938028 )
                  (  0.0000000  0.0000000 -1.0000000 )       (  0.0000000 )


      isym =  7     inv. 180 deg rotation - cart. axis [0,1,0]   

 cryst.   s( 7) = (     1          0          0      )    f =(  0.5000000 )
                  (     0         -1          0      )       (  0.5000000 )
                  (     0          0          1      )       (  0.0000000 )

 cart.    s( 7) = (  1.0000000  0.0000000  0.0000000 )    f =(  0.5000000 )
                  (  0.0000000 -1.0000000  0.0000000 )       (  0.7938028 )
                  (  0.0000000  0.0000000  1.0000000 )       (  0.0000000 )


      isym =  8     inv. 180 deg rotation - cart. axis [1,0,0]   

 cryst.   s( 8) = (    -1          0          0      )
                  (     0          1          0      )
                  (     0          0          1      )

 cart.    s( 8) = ( -1.0000000  0.0000000  0.0000000 )
                  (  0.0000000  1.0000000  0.0000000 )
                  (  0.0000000  0.0000000  1.0000000 )


   Cartesian axes

     site n.     atom                  positions (alat units)
         1           C   tau(   1) = (   0.5000000   0.2236626   0.1966432  )
         2           C   tau(   2) = (   0.0000000   1.0174654  -0.1966432  )
         3           C   tau(   3) = (   0.0000000   0.5701401   0.1966432  )
         4           C   tau(   4) = (   0.5000000   1.3639429  -0.1966432  )
         5           F   tau(   5) = (   0.5000000   0.0000000  -0.6720235  )
         6           F   tau(   6) = (   0.0000000   0.7938028   0.6720235  )
         7           F   tau(   7) = (   0.0000000   0.7938028  -0.6720235  )
         8           F   tau(   8) = (   0.5000000   0.0000000   0.6720235  )

   Crystallographic axes

     site n.     atom                  positions (cryst. coord.)
         1           C   tau(   1) = (  0.5000000  0.1408805  0.0354711  )
         2           C   tau(   2) = (  0.0000000  0.6408805 -0.0354711  )
         3           C   tau(   3) = (  0.0000000  0.3591195  0.0354711  )
         4           C   tau(   4) = (  0.5000000  0.8591195 -0.0354711  )
         5           F   tau(   5) = (  0.5000000  0.0000000 -0.1212217  )
         6           F   tau(   6) = (  0.0000000  0.5000000  0.1212217  )
         7           F   tau(   7) = (  0.0000000  0.5000000 -0.1212217  )
         8           F   tau(   8) = (  0.5000000  0.0000000  0.1212217  )

     number of k points=    25  Marzari-Vanderbilt smearing, width (Ry)=  0.0200
                       cart. coord. in units 2pi/alat
        k(    1) = (   0.0000000   0.0000000   0.0000000), wk =   0.0246914
        k(    2) = (   0.0000000   0.0699866   0.0000000), wk =   0.0493827
        k(    3) = (   0.0000000   0.1399732   0.0000000), wk =   0.0493827
        k(    4) = (   0.0000000   0.2099598   0.0000000), wk =   0.0493827
        k(    5) = (   0.0000000   0.2799464   0.0000000), wk =   0.0493827
        k(    6) = (   0.1111111   0.0000000   0.0000000), wk =   0.0493827
        k(    7) = (   0.1111111   0.0699866   0.0000000), wk =   0.0987654
        k(    8) = (   0.1111111   0.1399732   0.0000000), wk =   0.0987654
        k(    9) = (   0.1111111   0.2099598   0.0000000), wk =   0.0987654
        k(   10) = (   0.1111111   0.2799464   0.0000000), wk =   0.0987654
        k(   11) = (   0.2222222   0.0000000   0.0000000), wk =   0.0493827
        k(   12) = (   0.2222222   0.0699866   0.0000000), wk =   0.0987654
        k(   13) = (   0.2222222   0.1399732   0.0000000), wk =   0.0987654
        k(   14) = (   0.2222222   0.2099598   0.0000000), wk =   0.0987654
        k(   15) = (   0.2222222   0.2799464   0.0000000), wk =   0.0987654
        k(   16) = (   0.3333333   0.0000000   0.0000000), wk =   0.0493827
        k(   17) = (   0.3333333   0.0699866   0.0000000), wk =   0.0987654
        k(   18) = (   0.3333333   0.1399732   0.0000000), wk =   0.0987654
        k(   19) = (   0.3333333   0.2099598   0.0000000), wk =   0.0987654
        k(   20) = (   0.3333333   0.2799464   0.0000000), wk =   0.0987654
        k(   21) = (   0.4444444   0.0000000   0.0000000), wk =   0.0493827
        k(   22) = (   0.4444444   0.0699866   0.0000000), wk =   0.0987654
        k(   23) = (   0.4444444   0.1399732   0.0000000), wk =   0.0987654
        k(   24) = (   0.4444444   0.2099598   0.0000000), wk =   0.0987654
        k(   25) = (   0.4444444   0.2799464   0.0000000), wk =   0.0987654

                       cryst. coord.
        k(    1) = (   0.0000000   0.0000000   0.0000000), wk =   0.0246914
        k(    2) = (   0.0000000   0.1111111   0.0000000), wk =   0.0493827
        k(    3) = (   0.0000000   0.2222222   0.0000000), wk =   0.0493827
        k(    4) = (   0.0000000   0.3333333   0.0000000), wk =   0.0493827
        k(    5) = (   0.0000000   0.4444444   0.0000000), wk =   0.0493827
        k(    6) = (   0.1111111   0.0000000   0.0000000), wk =   0.0493827
        k(    7) = (   0.1111111   0.1111111   0.0000000), wk =   0.0987654
        k(    8) = (   0.1111111   0.2222222   0.0000000), wk =   0.0987654
        k(    9) = (   0.1111111   0.3333333   0.0000000), wk =   0.0987654
        k(   10) = (   0.1111111   0.4444444   0.0000000), wk =   0.0987654
        k(   11) = (   0.2222222   0.0000000   0.0000000), wk =   0.0493827
        k(   12) = (   0.2222222   0.1111111   0.0000000), wk =   0.0987654
        k(   13) = (   0.2222222   0.2222222   0.0000000), wk =   0.0987654
        k(   14) = (   0.2222222   0.3333333   0.0000000), wk =   0.0987654
        k(   15) = (   0.2222222   0.4444444   0.0000000), wk =   0.0987654
        k(   16) = (   0.3333333   0.0000000   0.0000000), wk =   0.0493827
        k(   17) = (   0.3333333   0.1111111   0.0000000), wk =   0.0987654
        k(   18) = (   0.3333333   0.2222222   0.0000000), wk =   0.0987654
        k(   19) = (   0.3333333   0.3333333   0.0000000), wk =   0.0987654
        k(   20) = (   0.3333333   0.4444444   0.0000000), wk =   0.0987654
        k(   21) = (   0.4444444   0.0000000   0.0000000), wk =   0.0493827
        k(   22) = (   0.4444444   0.1111111   0.0000000), wk =   0.0987654
        k(   23) = (   0.4444444   0.2222222   0.0000000), wk =   0.0987654
        k(   24) = (   0.4444444   0.3333333   0.0000000), wk =   0.0987654
        k(   25) = (   0.4444444   0.4444444   0.0000000), wk =   0.0987654

     Dense  grid:  2141723 G-vectors     FFT dimensions: (  80, 128, 432)

     Dynamical RAM for                 wfc:       1.21 MB

     Dynamical RAM for     wfc (w. buffer):      31.38 MB

     Dynamical RAM for           str. fact:       0.74 MB

     Dynamical RAM for           local pot:       0.00 MB

     Dynamical RAM for          nlocal pot:       2.97 MB

     Dynamical RAM for                qrad:       4.49 MB

     Dynamical RAM for          rho,v,vnew:       2.29 MB

     Dynamical RAM for               rhoin:       0.76 MB

     Dynamical RAM for            rho*nmix:       5.94 MB

     Dynamical RAM for           G-vectors:       1.58 MB

     Dynamical RAM for          h,s,v(r/c):       0.12 MB

     Dynamical RAM for          <psi|beta>:       0.03 MB

     Dynamical RAM for                 psi:       2.41 MB

     Dynamical RAM for                hpsi:       2.41 MB

     Dynamical RAM for                spsi:       2.41 MB

     Dynamical RAM for      wfcinit/wfcrot:       2.99 MB

     Dynamical RAM for           addusdens:      17.44 MB

     Dynamical RAM for          addusforce:      19.86 MB

     Dynamical RAM for         addusstress:      18.56 MB

     Estimated static dynamical RAM per process >      47.27 MB

     Estimated max dynamical RAM per process >      73.07 MB

     Estimated total dynamical RAM >       6.28 GB

     Initial potential from superposition of free atoms

     starting charge      43.9998, renormalised to      44.0000

     negative rho (up, down):  1.098E-03 0.000E+00
     Starting wfcs are   32 randomized atomic wfcs

     total cpu time spent up to now is       81.6 secs

     Self-consistent Calculation

     iteration #  1     ecut=   600.00 Ry     beta= 0.70
     Davidson diagonalization with overlap

---- Real-time Memory Report at c_bands before calling an iterative solver
           127 MiB given to the printing process from OS
             0 MiB allocation reported by mallinfo(arena+hblkhd)
        346137 MiB available memory on the node where the printing process lives
------------------
     ethr =  1.00E-02,  avg # of iterations =  3.0

     Threshold (ethr) on eigenvalues was too large:
     Diagonalizing with lowered threshold

     Davidson diagonalization with overlap

---- Real-time Memory Report at c_bands before calling an iterative solver
           141 MiB given to the printing process from OS
             0 MiB allocation reported by mallinfo(arena+hblkhd)
        344249 MiB available memory on the node where the printing process lives
------------------
     ethr =  9.95E-04,  avg # of iterations =  1.1

     negative rho (up, down):  2.918E-04 0.000E+00

     total cpu time spent up to now is      613.8 secs

     total energy              =    -240.13686773 Ry
     estimated scf accuracy    <       0.42535341 Ry

     iteration #  2     ecut=   600.00 Ry     beta= 0.70
     Davidson diagonalization with overlap

---- Real-time Memory Report at c_bands before calling an iterative solver
           147 MiB given to the printing process from OS
             0 MiB allocation reported by mallinfo(arena+hblkhd)
        344011 MiB available memory on the node where the printing process lives
------------------
     ethr =  9.67E-04,  avg # of iterations =  3.1

     negative rho (up, down):  1.666E-04 0.000E+00

     total cpu time spent up to now is      960.8 secs

     total energy              =    -240.15562733 Ry
     estimated scf accuracy    <       0.32192064 Ry

     iteration #  3     ecut=   600.00 Ry     beta= 0.70
     Davidson diagonalization with overlap

---- Real-time Memory Report at c_bands before calling an iterative solver
           148 MiB given to the printing process from OS
             0 MiB allocation reported by mallinfo(arena+hblkhd)
        343645 MiB available memory on the node where the printing process lives
------------------
     ethr =  7.32E-04,  avg # of iterations =  2.5

     negative rho (up, down):  3.005E-05 0.000E+00

     total cpu time spent up to now is     1250.3 secs

     total energy              =    -240.24251622 Ry
     estimated scf accuracy    <       0.02789084 Ry

     iteration #  4     ecut=   600.00 Ry     beta= 0.70
     Davidson diagonalization with overlap

---- Real-time Memory Report at c_bands before calling an iterative solver
           149 MiB given to the printing process from OS
             0 MiB allocation reported by mallinfo(arena+hblkhd)
        343585 MiB available memory on the node where the printing process lives
------------------
     ethr =  6.34E-05,  avg # of iterations =  4.0

     negative rho (up, down):  5.740E-06 0.000E+00

     total cpu time spent up to now is     1630.3 secs

     total energy              =    -240.24613358 Ry
     estimated scf accuracy    <       0.00096998 Ry

     iteration #  5     ecut=   600.00 Ry     beta= 0.70
     Davidson diagonalization with overlap

---- Real-time Memory Report at c_bands before calling an iterative solver
           149 MiB given to the printing process from OS
             0 MiB allocation reported by mallinfo(arena+hblkhd)
        343533 MiB available memory on the node where the printing process lives
------------------
     ethr =  2.20E-06,  avg # of iterations =  5.8

     negative rho (up, down):  5.065E-06 0.000E+00

     total cpu time spent up to now is     2145.8 secs

     total energy              =    -240.24642299 Ry
     estimated scf accuracy    <       0.00002460 Ry

     iteration #  6     ecut=   600.00 Ry     beta= 0.70
     Davidson diagonalization with overlap

---- Real-time Memory Report at c_bands before calling an iterative solver
           150 MiB given to the printing process from OS
             0 MiB allocation reported by mallinfo(arena+hblkhd)
        343442 MiB available memory on the node where the printing process lives
------------------
     ethr =  5.59E-08,  avg # of iterations =  3.0

     negative rho (up, down):  5.213E-06 0.000E+00

     total cpu time spent up to now is     2467.9 secs

     total energy              =    -240.24642523 Ry
     estimated scf accuracy    <       0.00000478 Ry

     iteration #  7     ecut=   600.00 Ry     beta= 0.70
     Davidson diagonalization with overlap

---- Real-time Memory Report at c_bands before calling an iterative solver
           151 MiB given to the printing process from OS
             0 MiB allocation reported by mallinfo(arena+hblkhd)
        343377 MiB available memory on the node where the printing process lives
------------------
     ethr =  1.09E-08,  avg # of iterations =  2.6

     negative rho (up, down):  5.205E-06 0.000E+00

     total cpu time spent up to now is     2772.8 secs

     total energy              =    -240.24642676 Ry
     estimated scf accuracy    <       0.00000056 Ry

     iteration #  8     ecut=   600.00 Ry     beta= 0.70
     Davidson diagonalization with overlap

---- Real-time Memory Report at c_bands before calling an iterative solver
           152 MiB given to the printing process from OS
             0 MiB allocation reported by mallinfo(arena+hblkhd)
        343313 MiB available memory on the node where the printing process lives
------------------
     ethr =  1.27E-09,  avg # of iterations =  2.0

     negative rho (up, down):  5.204E-06 0.000E+00

     total cpu time spent up to now is     3021.1 secs

     total energy              =    -240.24642681 Ry
     estimated scf accuracy    <       0.00000004 Ry

     iteration #  9     ecut=   600.00 Ry     beta= 0.70
     Davidson diagonalization with overlap

---- Real-time Memory Report at c_bands before calling an iterative solver
           152 MiB given to the printing process from OS
             0 MiB allocation reported by mallinfo(arena+hblkhd)
        343271 MiB available memory on the node where the printing process lives
------------------
     ethr =  8.00E-11,  avg # of iterations =  3.1

     negative rho (up, down):  5.203E-06 0.000E+00

     total cpu time spent up to now is     3364.5 secs

     total energy              =    -240.24642682 Ry
     estimated scf accuracy    <          2.4E-09 Ry

     iteration # 10     ecut=   600.00 Ry     beta= 0.70
     Davidson diagonalization with overlap

---- Real-time Memory Report at c_bands before calling an iterative solver
           153 MiB given to the printing process from OS
             0 MiB allocation reported by mallinfo(arena+hblkhd)
        343203 MiB available memory on the node where the printing process lives
------------------
     ethr =  5.36E-12,  avg # of iterations =  2.4

     negative rho (up, down):  5.203E-06 0.000E+00

     total cpu time spent up to now is     3649.4 secs

     total energy              =    -240.24642682 Ry
     estimated scf accuracy    <          9.3E-11 Ry

     iteration # 11     ecut=   600.00 Ry     beta= 0.70
     Davidson diagonalization with overlap

---- Real-time Memory Report at c_bands before calling an iterative solver
           153 MiB given to the printing process from OS
             0 MiB allocation reported by mallinfo(arena+hblkhd)
        343180 MiB available memory on the node where the printing process lives
------------------
     ethr =  2.10E-13,  avg # of iterations =  2.9

     negative rho (up, down):  5.203E-06 0.000E+00

     total cpu time spent up to now is     3974.0 secs

     total energy              =    -240.24642682 Ry
     estimated scf accuracy    <          7.5E-12 Ry

     iteration # 12     ecut=   600.00 Ry     beta= 0.70
     Davidson diagonalization with overlap

---- Real-time Memory Report at c_bands before calling an iterative solver
           153 MiB given to the printing process from OS
             0 MiB allocation reported by mallinfo(arena+hblkhd)
        343174 MiB available memory on the node where the printing process lives
------------------
     ethr =  1.00E-13,  avg # of iterations =  1.7

     negative rho (up, down):  5.203E-06 0.000E+00

     total cpu time spent up to now is     4212.5 secs

     End of self-consistent calculation

          k = 0.0000 0.0000 0.0000 (267837 PWs)   bands (ev):

   -28.1358 -27.8518 -26.6165 -26.4986 -18.7990 -15.5275 -13.5197 -11.1276
   -10.3289  -9.9348  -8.6447  -8.2511  -7.5924  -7.5387  -7.2641  -5.4084
    -5.2652  -5.1944  -4.5651  -4.2619  -4.0174  -2.7005   0.8358   3.3031
     3.4365   4.4757

     occupation numbers 
     1.0000   1.0000   1.0000   1.0000   1.0000   1.0000   1.0000   1.0000
     1.0000   1.0000   1.0000   1.0000   1.0000   1.0000   1.0000   1.0000
     1.0000   1.0000   1.0000   1.0000   1.0000   1.0000   0.0000   0.0000
     0.0000   0.0000

          k = 0.0000 0.0700 0.0000 (267841 PWs)   bands (ev):

   -28.1037 -27.8270 -26.6563 -26.5353 -18.7369 -15.7398 -13.3504 -11.0808
   -10.2074  -9.9807  -8.5941  -8.2608  -7.6894  -7.4480  -7.2745  -5.4637
    -5.3374  -5.3056  -4.6231  -4.2133  -3.9735  -2.7476   0.9838   3.3301
     3.4320   4.6569

     occupation numbers 
     1.0000   1.0000   1.0000   1.0000   1.0000   1.0000   1.0000   1.0000
     1.0000   1.0000   1.0000   1.0000   1.0000   1.0000   1.0000   1.0000
     1.0000   1.0000   1.0000   1.0000   1.0000   1.0000   0.0000   0.0000
     0.0000   0.0000

          k = 0.0000 0.1400 0.0000 (267787 PWs)   bands (ev):

   -28.0119 -27.7596 -26.7629 -26.6369 -18.5527 -16.2257 -12.9649 -11.0201
   -10.0360  -9.8920  -8.4471  -8.3034  -7.9600  -7.3220  -7.2020  -5.6431
    -5.5931  -5.4107  -4.7447  -4.1842  -3.8543  -2.8758   1.3839   3.4035
     3.4098   5.1655

     occupation numbers 
     1.0000   1.0000   1.0000   1.0000   1.0000   1.0000   1.0000   1.0000
     1.0000   1.0000   1.0000   1.0000   1.0000   1.0000   1.0000   1.0000
     1.0000   1.0000   1.0000   1.0000   1.0000   1.0000   0.0000   0.0000
     0.0000   0.0000

          k = 0.0000 0.2100 0.0000 (267682 PWs)   bands (ev):

   -27.8760 -27.6775 -26.8948 -26.7783 -18.2524 -16.7950 -12.4964 -11.1612
    -9.8811  -9.4970  -8.4134  -8.3606  -8.2196  -7.4448  -6.8620  -5.9647
    -5.7083  -5.5449  -4.8157  -4.2897  -3.6833  -3.0578   1.9373   3.2984
     3.5400   4.4203

     occupation numbers 
     1.0000   1.0000   1.0000   1.0000   1.0000   1.0000   1.0000   1.0000
     1.0000   1.0000   1.0000   1.0000   1.0000   1.0000   1.0000   1.0000
     1.0000   1.0000   1.0000   1.0000   1.0000   1.0000   0.0000   0.0000
     0.0000   0.0000

          k = 0.0000 0.2799 0.0000 (267762 PWs)   bands (ev):

   -27.7311 -27.6476 -26.9694 -26.9143 -17.8463 -17.3514 -12.0025 -11.5314
    -9.5045  -9.2221  -8.7275  -8.6123  -7.9418  -7.6631  -6.5282  -6.2476
    -5.7352  -5.6678  -4.7362  -4.5153  -3.4815  -3.2669   2.5293   3.0212
     3.7284   4.0141

     occupation numbers 
     1.0000   1.0000   1.0000   1.0000   1.0000   1.0000   1.0000   1.0000
     1.0000   1.0000   1.0000   1.0000   1.0000   1.0000   1.0000   1.0000
     1.0000   1.0000   1.0000   1.0000   1.0000   1.0000   0.0000   0.0000
     0.0000   0.0000

          k = 0.1111 0.0000 0.0000 (267833 PWs)   bands (ev):

   -28.0519 -27.7781 -26.6140 -26.4982 -18.6446 -15.3759 -13.4590 -11.0005
   -10.2539  -9.9546  -9.3335  -8.3531  -7.7208  -7.5574  -7.4462  -5.7512
    -5.5515  -5.2917  -4.6869  -4.3342  -4.1585  -3.2388   1.0793   4.0920
     4.2344   4.4313

     occupation numbers 
     1.0000   1.0000   1.0000   1.0000   1.0000   1.0000   1.0000   1.0000
     1.0000   1.0000   1.0000   1.0000   1.0000   1.0000   1.0000   1.0000
     1.0000   1.0000   1.0000   1.0000   1.0000   1.0000   0.0000   0.0000
     0.0000   0.0000

          k = 0.1111 0.0700 0.0000 (267762 PWs)   bands (ev):

   -28.0211 -27.7544 -26.6511 -26.5325 -18.5831 -15.5938 -13.2864 -10.9660
   -10.1535 -10.0021  -9.2728  -8.3771  -7.7342  -7.6569  -7.3588  -5.8338
    -5.5850  -5.2876  -4.6941  -4.3120  -4.1707  -3.2998   1.2081   4.2286
     4.2579   4.4492

     occupation numbers 
     1.0000   1.0000   1.0000   1.0000   1.0000   1.0000   1.0000   1.0000
     1.0000   1.0000   1.0000   1.0000   1.0000   1.0000   1.0000   1.0000
     1.0000   1.0000   1.0000   1.0000   1.0000   1.0000   0.0000   0.0000
     0.0000   0.0000

          k = 0.1111 0.1400 0.0000 (267730 PWs)   bands (ev):

   -27.9332 -27.6901 -26.7505 -26.6278 -18.4008 -16.0853 -12.9033 -10.9409
   -10.0621  -9.9097  -9.0909  -8.4602  -7.9154  -7.7775  -7.1256  -5.9519
    -5.6569  -5.3944  -4.7441  -4.2221  -4.2181  -3.4375   1.5671   4.1756
     4.4981   4.6443

     occupation numbers 
     1.0000   1.0000   1.0000   1.0000   1.0000   1.0000   1.0000   1.0000
     1.0000   1.0000   1.0000   1.0000   1.0000   1.0000   1.0000   1.0000
     1.0000   1.0000   1.0000   1.0000   1.0000   1.0000   0.0000   0.0000
     0.0000   0.0000

          k = 0.1111 0.2100 0.0000 (267743 PWs)   bands (ev):

   -27.8031 -27.6120 -26.8737 -26.7608 -18.1033 -16.6552 -12.4470 -11.1202
    -9.9341  -9.6426  -8.8490  -8.6124  -8.2195  -7.8612  -6.7991  -6.0053
    -5.7246  -5.6447  -4.8050  -4.3679  -4.0591  -3.5764   2.0928   3.9160
     4.5639   4.7432

     occupation numbers 
     1.0000   1.0000   1.0000   1.0000   1.0000   1.0000   1.0000   1.0000
     1.0000   1.0000   1.0000   1.0000   1.0000   1.0000   1.0000   1.0000
     1.0000   1.0000   1.0000   1.0000   1.0000   1.0000   0.0000   0.0000
     0.0000   0.0000

          k = 0.1111 0.2799 0.0000 (267738 PWs)   bands (ev):

   -27.6644 -27.5841 -26.9426 -26.8894 -17.7007 -17.2092 -11.9673 -11.5025
    -9.6448  -9.4851  -8.8309  -8.7912  -8.2237  -8.0116  -6.4491  -6.1316
    -5.8176  -5.7823  -4.7700  -4.5921  -3.8790  -3.7142   2.7161   3.3656
     4.6259   4.6750

     occupation numbers 
     1.0000   1.0000   1.0000   1.0000   1.0000   1.0000   1.0000   1.0000
     1.0000   1.0000   1.0000   1.0000   1.0000   1.0000   1.0000   1.0000
     1.0000   1.0000   1.0000   1.0000   1.0000   1.0000   0.0000   0.0000
     0.0000   0.0000

          k = 0.2222 0.0000 0.0000 (267717 PWs)   bands (ev):

   -27.8186 -27.5736 -26.6244 -26.5122 -18.1847 -14.9285 -13.3955 -10.6696
   -10.6447 -10.1258 -10.0555  -8.7509  -8.7051  -7.6875  -7.2054  -6.2207
    -6.1594  -5.6744  -5.2670  -4.6020  -4.2039  -4.1717   1.6709   3.8111
     5.6011   6.0364

     occupation numbers 
     1.0000   1.0000   1.0000   1.0000   1.0000   1.0000   1.0000   1.0000
     1.0000   1.0000   1.0000   1.0000   1.0000   1.0000   1.0000   1.0000
     1.0000   1.0000   1.0000   1.0000   1.0000   1.0000   0.0000   0.0000
     0.0000   0.0000

          k = 0.2222 0.0700 0.0000 (267716 PWs)   bands (ev):

   -27.7920 -27.5533 -26.6536 -26.5398 -18.1252 -15.1648 -13.2207 -10.6579
   -10.6558 -10.1980  -9.9111  -8.9080  -8.5571  -7.8027  -7.1507  -6.2483
    -6.1522  -5.5658  -5.2013  -4.5973  -4.3254  -4.1935   1.7631   3.9735
     5.5780   6.0750

     occupation numbers 
     1.0000   1.0000   1.0000   1.0000   1.0000   1.0000   1.0000   1.0000
     1.0000   1.0000   1.0000   1.0000   1.0000   1.0000   1.0000   1.0000
     1.0000   1.0000   1.0000   1.0000   1.0000   1.0000   0.0000   0.0000
     0.0000   0.0000

          k = 0.2222 0.1400 0.0000 (267724 PWs)   bands (ev):

   -27.7159 -27.4986 -26.7323 -26.6166 -17.9486 -15.6721 -12.8664 -10.7910
   -10.5906 -10.3004  -9.5680  -9.0683  -8.4174  -8.0733  -6.9922  -6.2457
    -6.1332  -5.4269  -5.0646  -4.5752  -4.5743  -4.2776   2.0370   4.3773
     5.4241   5.9728

     occupation numbers 
     1.0000   1.0000   1.0000   1.0000   1.0000   1.0000   1.0000   1.0000
     1.0000   1.0000   1.0000   1.0000   1.0000   1.0000   1.0000   1.0000
     1.0000   1.0000   1.0000   1.0000   1.0000   1.0000   0.0000   0.0000
     0.0000   0.0000

          k = 0.2222 0.2100 0.0000 (267813 PWs)   bands (ev):

   -27.6038 -27.4331 -26.8295 -26.7251 -17.6600 -16.2421 -12.4677 -11.1434
   -10.4733 -10.2891  -9.2251  -9.1830  -8.3350  -8.3262  -6.7393  -6.1824
    -6.0957  -5.5448  -4.9831  -4.7939  -4.5000  -4.3303   2.4820   4.4377
     5.3693   5.9541

     occupation numbers 
     1.0000   1.0000   1.0000   1.0000   1.0000   1.0000   1.0000   1.0000
     1.0000   1.0000   1.0000   1.0000   1.0000   1.0000   1.0000   1.0000
     1.0000   1.0000   1.0000   1.0000   1.0000   1.0000   0.0000   0.0000
     0.0000   0.0000

          k = 0.2222 0.2799 0.0000 (267688 PWs)   bands (ev):

   -27.4841 -27.4125 -26.8808 -26.8323 -17.2682 -16.7878 -12.0408 -11.5892
   -10.3469 -10.2759  -9.2025  -9.1348  -8.3839  -8.3161  -6.4086  -6.1553
    -6.0358  -5.8776  -4.9769  -4.9302  -4.3923  -4.3368   3.0768   3.7782
     5.7936   6.0467

     occupation numbers 
     1.0000   1.0000   1.0000   1.0000   1.0000   1.0000   1.0000   1.0000
     1.0000   1.0000   1.0000   1.0000   1.0000   1.0000   1.0000   1.0000
     1.0000   1.0000   1.0000   1.0000   1.0000   1.0000   0.0000   0.0000
     0.0000   0.0000

          k = 0.3333 0.0000 0.0000 (267621 PWs)   bands (ev):

   -27.4895 -27.2854 -26.6925 -26.5785 -17.4291 -14.2067 -13.9029 -11.4325
   -10.9008 -10.2117  -9.8117  -9.3693  -9.3231  -8.0438  -7.0960  -6.4342
    -6.3999  -6.3417  -5.8816  -4.8985  -4.7596  -4.4930   2.4292   4.0011
     5.6278   6.9654

     occupation numbers 
     1.0000   1.0000   1.0000   1.0000   1.0000   1.0000   1.0000   1.0000
     1.0000   1.0000   1.0000   1.0000   1.0000   1.0000   1.0000   1.0000
     1.0000   1.0000   1.0000   1.0000   1.0000   1.0000   0.0000   0.0000
     0.0000   0.0000

          k = 0.3333 0.0700 0.0000 (267607 PWs)   bands (ev):

   -27.4701 -27.2713 -26.7099 -26.5958 -17.3733 -14.5139 -13.7213 -11.3308
   -11.0907 -10.2537  -9.7393  -9.5098  -9.0541  -8.1616  -7.0054  -6.5053
    -6.4269  -6.1784  -5.7384  -5.0471  -4.7290  -4.4595   2.4920   4.1060
     5.5862   6.9503

     occupation numbers 
     1.0000   1.0000   1.0000   1.0000   1.0000   1.0000   1.0000   1.0000
     1.0000   1.0000   1.0000   1.0000   1.0000   1.0000   1.0000   1.0000
     1.0000   1.0000   1.0000   1.0000   1.0000   1.0000   0.0000   0.0000
     0.0000   0.0000

          k = 0.3333 0.1400 0.0000 (267628 PWs)   bands (ev):

   -27.4150 -27.2339 -26.7565 -26.6447 -17.2071 -15.0295 -13.4899 -11.5208
   -11.1120 -10.3635  -9.5846  -9.5684  -8.7353  -8.3501  -6.8476  -6.5526
    -6.4000  -5.8800  -5.4914  -5.3234  -4.6540  -4.4786   2.6904   4.3726
     5.4392   6.2750

     occupation numbers 
     1.0000   1.0000   1.0000   1.0000   1.0000   1.0000   1.0000   1.0000
     1.0000   1.0000   1.0000   1.0000   1.0000   1.0000   1.0000   1.0000
     1.0000   1.0000   1.0000   1.0000   1.0000   1.0000   0.0000   0.0000
     0.0000   0.0000

          k = 0.3333 0.2100 0.0000 (267629 PWs)   bands (ev):

   -27.3339 -27.1921 -26.8119 -26.7155 -16.9346 -15.5821 -13.2259 -12.0162
   -10.8935 -10.4804  -9.6022  -9.5162  -8.4802  -8.3953  -6.7437  -6.4127
    -6.4032  -5.5886  -5.5661  -5.3205  -4.5790  -4.5598   3.0442   4.5395
     5.2568   5.8733

     occupation numbers 
     1.0000   1.0000   1.0000   1.0000   1.0000   1.0000   1.0000   1.0000
     1.0000   1.0000   1.0000   1.0000   1.0000   1.0000   1.0000   1.0000
     1.0000   1.0000   1.0000   1.0000   1.0000   1.0000   0.0000   0.0000
     0.0000   0.0000

          k = 0.3333 0.2799 0.0000 (267709 PWs)   bands (ev):

   -27.2462 -27.1875 -26.8325 -26.7895 -16.5632 -16.1055 -12.8952 -12.4878
   -10.7184 -10.5890  -9.6104  -9.5673  -8.3405  -8.3326  -6.6427  -6.5068
    -6.1235  -5.8145  -5.3832  -5.2907  -4.5823  -4.5552   3.5536   4.1464
     5.3721   5.5861

     occupation numbers 
     1.0000   1.0000   1.0000   1.0000   1.0000   1.0000   1.0000   1.0000
     1.0000   1.0000   1.0000   1.0000   1.0000   1.0000   1.0000   1.0000
     1.0000   1.0000   1.0000   1.0000   1.0000   1.0000   0.0000   0.0000
     0.0000   0.0000

          k = 0.4444 0.0000 0.0000 (267618 PWs)   bands (ev):

   -27.1441 -26.9824 -26.8631 -26.7335 -16.3964 -15.1395 -13.2463 -12.1009
   -11.1723 -10.5368  -9.6193  -9.4964  -9.2030  -8.5852  -7.2037  -6.9473
    -6.3890  -6.2508  -6.0323  -5.4848  -4.8510  -4.7743   3.3259   4.4168
     4.6994   5.8251

     occupation numbers 
     1.0000   1.0000   1.0000   1.0000   1.0000   1.0000   1.0000   1.0000
     1.0000   1.0000   1.0000   1.0000   1.0000   1.0000   1.0000   1.0000
     1.0000   1.0000   1.0000   1.0000   1.0000   1.0000   0.0000   0.0000
     0.0000   0.0000

          k = 0.4444 0.0700 0.0000 (267644 PWs)   bands (ev):

   -27.1353 -26.9782 -26.8658 -26.7389 -16.3464 -15.1065 -13.4460 -12.3180
   -11.0415 -10.4551  -9.6623  -9.6379  -9.0039  -8.6029  -7.0666  -6.8181
    -6.4483  -6.4255  -5.8533  -5.5460  -4.7949  -4.7049   3.3707   4.4415
     4.7035   5.6842

     occupation numbers 
     1.0000   1.0000   1.0000   1.0000   1.0000   1.0000   1.0000   1.0000
     1.0000   1.0000   1.0000   1.0000   1.0000   1.0000   1.0000   1.0000
     1.0000   1.0000   1.0000   1.0000   1.0000   1.0000   0.0000   0.0000
     0.0000   0.0000

          k = 0.4444 0.1400 0.0000 (267647 PWs)   bands (ev):

   -27.1107 -26.9701 -26.8704 -26.7546 -16.1980 -15.0261 -13.8637 -12.7887
   -10.8104 -10.3779  -9.8458  -9.7234  -8.6995  -8.5458  -6.7565  -6.6821
    -6.5522  -6.4854  -5.6438  -5.5967  -4.6812  -4.6210   3.5145   4.4853
     4.7638   5.4231

     occupation numbers 
     1.0000   1.0000   1.0000   1.0000   1.0000   1.0000   1.0000   1.0000
     1.0000   1.0000   1.0000   1.0000   1.0000   1.0000   1.0000   1.0000
     1.0000   1.0000   1.0000   1.0000   1.0000   1.0000   0.0000   0.0000
     0.0000   0.0000

          k = 0.4444 0.2100 0.0000 (267683 PWs)   bands (ev):

   -27.0747 -26.9729 -26.8648 -26.7793 -15.9558 -15.0128 -14.1833 -13.3048
   -10.6449 -10.4211  -9.9262  -9.8495  -8.4351  -8.3903  -6.8631  -6.7305
    -6.3530  -6.0748  -5.5882  -5.5062  -4.6217  -4.6108   3.7615   4.4316
     4.9908   5.2384

     occupation numbers 
     1.0000   1.0000   1.0000   1.0000   1.0000   1.0000   1.0000   1.0000
     1.0000   1.0000   1.0000   1.0000   1.0000   1.0000   1.0000   1.0000
     1.0000   1.0000   1.0000   1.0000   1.0000   1.0000   0.0000   0.0000
     0.0000   0.0000

          k = 0.4444 0.2799 0.0000 (267651 PWs)   bands (ev):

   -27.0340 -26.9967 -26.8417 -26.8101 -15.6325 -15.2679 -14.1100 -13.7680
   -10.5584 -10.4974  -9.9491  -9.9315  -8.2833  -8.2734  -6.9246  -6.8739
    -5.9643  -5.7452  -5.6419  -5.5062  -4.6476  -4.6221   4.0542   4.2867
     5.2064   5.2091

     occupation numbers 
     1.0000   1.0000   1.0000   1.0000   1.0000   1.0000   1.0000   1.0000
     1.0000   1.0000   1.0000   1.0000   1.0000   1.0000   1.0000   1.0000
     1.0000   1.0000   1.0000   1.0000   1.0000   1.0000   0.0000   0.0000
     0.0000   0.0000

     the Fermi energy is    -0.4493 ev

!    total energy              =    -240.24642682 Ry
     estimated scf accuracy    <          7.1E-13 Ry
     smearing contrib. (-TS)   =      -0.00000000 Ry
     internal energy E=F+TS    =    -240.24642682 Ry

     The total energy is F=E-TS. E is the sum of the following terms:
     one-electron contribution =   -1261.23528284 Ry
     hartree contribution      =     644.44490125 Ry
     xc contribution           =     -51.69331921 Ry
     ewald contribution        =     428.23727398 Ry

     convergence has been achieved in  12 iterations

     negative rho (up, down):  5.203E-06 0.000E+00

     Forces acting on atoms (cartesian axes, Ry/au):

     atom    1 type  1   force =     0.00000000   -0.00000504    0.00000209
     atom    2 type  1   force =     0.00000000   -0.00000504   -0.00000209
     atom    3 type  1   force =     0.00000000    0.00000504    0.00000209
     atom    4 type  1   force =     0.00000000    0.00000504   -0.00000209
     atom    5 type  2   force =     0.00000000   -0.01044245   -0.00000028
     atom    6 type  2   force =     0.00000000   -0.01044245    0.00000028
     atom    7 type  2   force =     0.00000000    0.01044245   -0.00000028
     atom    8 type  2   force =     0.00000000    0.01044245    0.00000028
     The non-local contrib.  to forces
     atom    1 type  1   force =    -0.00000000   -0.16678418    0.36464635
     atom    2 type  1   force =    -0.00000000   -0.16678418   -0.36464635
     atom    3 type  1   force =     0.00000000    0.16678418    0.36464635
     atom    4 type  1   force =     0.00000000    0.16678418   -0.36464635
     atom    5 type  2   force =    -0.00000000   -1.02291810    2.26159327
     atom    6 type  2   force =     0.00000000   -1.02291810   -2.26159327
     atom    7 type  2   force =     0.00000000    1.02291810    2.26159327
     atom    8 type  2   force =     0.00000000    1.02291810   -2.26159327
     The ionic contribution  to forces
     atom    1 type  1   force =     0.00000000    1.00124255    2.94507196
     atom    2 type  1   force =     0.00000000    1.00124255   -2.94507196
     atom    3 type  1   force =    -0.00000000   -1.00124255    2.94507196
     atom    4 type  1   force =     0.00000000   -1.00124255   -2.94507196
     atom    5 type  2   force =     0.00000000    3.87401752  -44.60693814
     atom    6 type  2   force =    -0.00000000    3.87401752   44.60693814
     atom    7 type  2   force =     0.00000000   -3.87401752  -44.60693814
     atom    8 type  2   force =     0.00000000   -3.87401752   44.60693814
     The local contribution  to forces
     atom    1 type  1   force =    -0.00000000   -0.83547565   -3.30702630
     atom    2 type  1   force =    -0.00000000   -0.83547565    3.30702630
     atom    3 type  1   force =     0.00000000    0.83547565   -3.30702630
     atom    4 type  1   force =     0.00000000    0.83547565    3.30702630
     atom    5 type  2   force =     0.00000000   -2.86154238   42.34534636
     atom    6 type  2   force =     0.00000000   -2.86154238  -42.34534636
     atom    7 type  2   force =     0.00000000    2.86154238   42.34534636
     atom    8 type  2   force =     0.00000000    2.86154238  -42.34534636
     The core correction contribution to forces
     atom    1 type  1   force =    -0.00000000    0.00101231   -0.00269033
     atom    2 type  1   force =    -0.00000000    0.00101231    0.00269033
     atom    3 type  1   force =     0.00000000   -0.00101231   -0.00269033
     atom    4 type  1   force =     0.00000000   -0.00101231    0.00269033
     atom    5 type  2   force =     0.00000000    0.00000000    0.00000000
     atom    6 type  2   force =     0.00000000    0.00000000    0.00000000
     atom    7 type  2   force =     0.00000000    0.00000000    0.00000000
     atom    8 type  2   force =     0.00000000    0.00000000    0.00000000
     The Hubbard contrib.    to forces
     atom    1 type  1   force =     0.00000000    0.00000000    0.00000000
     atom    2 type  1   force =     0.00000000    0.00000000    0.00000000
     atom    3 type  1   force =     0.00000000    0.00000000    0.00000000
     atom    4 type  1   force =     0.00000000    0.00000000    0.00000000
     atom    5 type  2   force =     0.00000000    0.00000000    0.00000000
     atom    6 type  2   force =     0.00000000    0.00000000    0.00000000
     atom    7 type  2   force =     0.00000000    0.00000000    0.00000000
     atom    8 type  2   force =     0.00000000    0.00000000    0.00000000
     The SCF correction term to forces
     atom    1 type  1   force =     0.00000000   -0.00000007    0.00000040
     atom    2 type  1   force =    -0.00000000   -0.00000007   -0.00000040
     atom    3 type  1   force =     0.00000000    0.00000007    0.00000040
     atom    4 type  1   force =     0.00000000    0.00000007   -0.00000040
     atom    5 type  2   force =     0.00000000    0.00000000   -0.00000177
     atom    6 type  2   force =    -0.00000000    0.00000000    0.00000177
     atom    7 type  2   force =     0.00000000   -0.00000000   -0.00000177
     atom    8 type  2   force =    -0.00000000   -0.00000000    0.00000177

     Total force =     0.000011     Total SCF correction =     0.000004
     SCF correction compared to forces is large: reduce conv_thr to get better values


     Computing stress (Cartesian axis) and pressure


     negative rho (up, down):  5.203E-06 0.000E+00
          total   stress  (Ry/bohr**3)                   (kbar)     P=       -0.02
  -0.00000014   0.00000000   0.00000000           -0.02        0.00        0.00
   0.00000000   0.00000002   0.00000000            0.00        0.00        0.00
   0.00000000   0.00000000  -0.00000021            0.00        0.00       -0.03

     kinetic stress (kbar)   9185.23      0.00      0.00
                                0.00   8993.51      0.00
                                0.00      0.00   8359.03

     local   stress (kbar)-162654.49     -0.00     -0.00
                               -0.00-164139.23      0.00
                               -0.00      0.00 157329.03

     nonloc. stress (kbar)   1186.66      0.00      0.00
                                0.00   1140.18      0.00
                                0.00      0.00    972.39

     hartree stress (kbar)  81601.73      0.00      0.00
                                0.00  82034.64     -0.00
                                0.00     -0.00 -75746.19

     exc-cor stress (kbar)  -2153.34      0.00     -0.00
                                0.00  -2149.04     -0.00
                               -0.00     -0.00  -2142.87

     corecor stress (kbar)    -74.03     -0.00     -0.00
                               -0.00    -73.86      0.00
                               -0.00      0.00    -72.92

     ewald   stress (kbar)  72908.21      0.00     -0.00
                                0.00  74193.81     -0.00
                               -0.00     -0.00 -88698.50

     hubbard stress (kbar)      0.00      0.00      0.00
                                0.00      0.00      0.00
                                0.00      0.00      0.00

     DFT-D   stress (kbar)      0.00      0.00      0.00
                                0.00      0.00      0.00
                                0.00      0.00      0.00

     XDM     stress (kbar)      0.00      0.00      0.00
                                0.00      0.00      0.00
                                0.00      0.00      0.00

     dft-nl  stress (kbar)      0.00      0.00      0.00
                                0.00      0.00      0.00
                                0.00      0.00      0.00

     TS-vdW  stress (kbar)      0.00      0.00      0.00
                                0.00      0.00      0.00
                                0.00      0.00      0.00

     MDB     stress (kbar)      0.00      0.00      0.00
                                0.00      0.00      0.00
                                0.00      0.00      0.00

     3D-RISM stress (kbar)      0.00      0.00      0.00
                                0.00      0.00      0.00
                                0.00      0.00      0.00


     BFGS Geometry Optimization
     Energy error            =      0.0E+00 Ry
     Gradient error          =      5.0E-06 Ry/Bohr
     Cell gradient error     =      2.1E-02 kbar

     number of scf cycles    =   1
     number of bfgs steps    =   0

     enthalpy           new  =    -240.2464268247 Ry

     new trust radius        =       0.0000230605 bohr
     new conv_thr            =            1.0E-12 Ry

     new unit-cell volume =   1078.62830 a.u.^3 (   159.83622 Ang^3 )
     density =      1.28861 g/cm^3

CELL_PARAMETERS (angstrom)
   2.628502367   0.000000000   0.000000000
   0.000000000   4.173041793   0.000000000
   0.000000000   0.000000000  14.571830239

ATOMIC_POSITIONS (crystal)
C             0.5000000000        0.1408798371        0.0354711815    0   1   1
C             0.0000000000        0.6408798371       -0.0354711815    0   1   1
C             0.0000000000        0.3591201629        0.0354711815    0   1   1
C             0.5000000000        0.8591201629       -0.0354711815    0   1   1
F             0.5000000000        0.0000000000       -0.1212216828    0   0   1
F             0.0000000000        0.5000000000        0.1212216828    0   0   1
F             0.0000000000        0.5000000000       -0.1212216828    0   0   1
F             0.5000000000        0.0000000000        0.1212216828    0   0   1



     Writing config-only to output data dir ../tmp/fgz.save/
     NEW-OLD atomic charge density approx. for the potential

     negative rho (up, down):  5.224E-06 0.000E+00
     extrapolated charge   43.99987, renormalised to   44.00000

     total cpu time spent up to now is     4353.7 secs

     Self-consistent Calculation

     iteration #  1     ecut=   600.00 Ry     beta= 0.70
     Davidson diagonalization with overlap

---- Real-time Memory Report at c_bands before calling an iterative solver
           186 MiB given to the printing process from OS
             0 MiB allocation reported by mallinfo(arena+hblkhd)
        343089 MiB available memory on the node where the printing process lives
------------------
     ethr =  1.00E-06,  avg # of iterations =  1.0

     Threshold (ethr) on eigenvalues was too large:
     Diagonalizing with lowered threshold

     Davidson diagonalization with overlap

---- Real-time Memory Report at c_bands before calling an iterative solver
           186 MiB given to the printing process from OS
             0 MiB allocation reported by mallinfo(arena+hblkhd)
        343088 MiB available memory on the node where the printing process lives
------------------
     ethr =  5.83E-12,  avg # of iterations =  2.0

     negative rho (up, down):  5.205E-06 0.000E+00

     total cpu time spent up to now is     4796.0 secs

     total energy              =    -240.24642682 Ry
     estimated scf accuracy    <          2.9E-09 Ry

     iteration #  2     ecut=   600.00 Ry     beta= 0.70
     Davidson diagonalization with overlap

---- Real-time Memory Report at c_bands before calling an iterative solver
           186 MiB given to the printing process from OS
             0 MiB allocation reported by mallinfo(arena+hblkhd)
        343070 MiB available memory on the node where the printing process lives
------------------
     ethr =  6.65E-12,  avg # of iterations =  3.5

     negative rho (up, down):  5.204E-06 0.000E+00

     total cpu time spent up to now is     5167.9 secs

     total energy              =    -240.24642682 Ry
     estimated scf accuracy    <          6.5E-09 Ry

     iteration #  3     ecut=   600.00 Ry     beta= 0.70
     Davidson diagonalization with overlap

---- Real-time Memory Report at c_bands before calling an iterative solver
           186 MiB given to the printing process from OS
             0 MiB allocation reported by mallinfo(arena+hblkhd)
        343076 MiB available memory on the node where the printing process lives
------------------
     ethr =  6.65E-12,  avg # of iterations =  2.0

     negative rho (up, down):  5.203E-06 0.000E+00

     total cpu time spent up to now is     5424.8 secs

     total energy              =    -240.24642682 Ry
     estimated scf accuracy    <          1.0E-09 Ry

     iteration #  4     ecut=   600.00 Ry     beta= 0.70
     Davidson diagonalization with overlap

---- Real-time Memory Report at c_bands before calling an iterative solver
           186 MiB given to the printing process from OS
             0 MiB allocation reported by mallinfo(arena+hblkhd)
        343065 MiB available memory on the node where the printing process lives
------------------
     ethr =  2.32E-12,  avg # of iterations =  1.0

     negative rho (up, down):  5.203E-06 0.000E+00

     total cpu time spent up to now is     5610.0 secs

     total energy              =    -240.24642682 Ry
     estimated scf accuracy    <          5.7E-10 Ry

     iteration #  5     ecut=   600.00 Ry     beta= 0.70
     Davidson diagonalization with overlap

---- Real-time Memory Report at c_bands before calling an iterative solver
           186 MiB given to the printing process from OS
             0 MiB allocation reported by mallinfo(arena+hblkhd)
        343059 MiB available memory on the node where the printing process lives
------------------
     ethr =  1.29E-12,  avg # of iterations =  2.0

     negative rho (up, down):  5.203E-06 0.000E+00

     total cpu time spent up to now is     5861.9 secs

     total energy              =    -240.24642683 Ry
     estimated scf accuracy    <          1.1E-10 Ry

     iteration #  6     ecut=   600.00 Ry     beta= 0.70
     Davidson diagonalization with overlap

---- Real-time Memory Report at c_bands before calling an iterative solver
           186 MiB given to the printing process from OS
             0 MiB allocation reported by mallinfo(arena+hblkhd)
        343060 MiB available memory on the node where the printing process lives
------------------
     ethr =  2.58E-13,  avg # of iterations =  2.0

     negative rho (up, down):  5.203E-06 0.000E+00

     total cpu time spent up to now is     6118.6 secs

     total energy              =    -240.24642683 Ry
     estimated scf accuracy    <          9.4E-12 Ry

     iteration #  7     ecut=   600.00 Ry     beta= 0.70
     Davidson diagonalization with overlap

---- Real-time Memory Report at c_bands before calling an iterative solver
           186 MiB given to the printing process from OS
             0 MiB allocation reported by mallinfo(arena+hblkhd)
        343062 MiB available memory on the node where the printing process lives
------------------
     ethr =  1.00E-13,  avg # of iterations =  1.2

     negative rho (up, down):  5.203E-06 0.000E+00

     total cpu time spent up to now is     6314.4 secs

     total energy              =    -240.24642683 Ry
     estimated scf accuracy    <          1.6E-12 Ry

     iteration #  8     ecut=   600.00 Ry     beta= 0.70
     Davidson diagonalization with overlap

---- Real-time Memory Report at c_bands before calling an iterative solver
           186 MiB given to the printing process from OS
             0 MiB allocation reported by mallinfo(arena+hblkhd)
        343065 MiB available memory on the node where the printing process lives
------------------
     ethr =  1.00E-13,  avg # of iterations =  1.0

     negative rho (up, down):  5.203E-06 0.000E+00

     total cpu time spent up to now is     6500.6 secs

     End of self-consistent calculation

          k = 0.0000 0.0000 0.0000 (267837 PWs)   bands (ev):

   -28.1358 -27.8518 -26.6165 -26.4986 -18.7990 -15.5275 -13.5197 -11.1276
   -10.3289  -9.9348  -8.6446  -8.2511  -7.5924  -7.5387  -7.2640  -5.4084
    -5.2651  -5.1944  -4.5651  -4.2619  -4.0173  -2.7005   0.8358   3.3033
     3.4366   4.4757

     occupation numbers 
     1.0000   1.0000   1.0000   1.0000   1.0000   1.0000   1.0000   1.0000
     1.0000   1.0000   1.0000   1.0000   1.0000   1.0000   1.0000   1.0000
     1.0000   1.0000   1.0000   1.0000   1.0000   1.0000   0.0000   0.0000
     0.0000   0.0000

          k = 0.0000 0.0700 0.0000 (267841 PWs)   bands (ev):

   -28.1037 -27.8270 -26.6563 -26.5353 -18.7369 -15.7398 -13.3504 -11.0809
   -10.2074  -9.9807  -8.5940  -8.2608  -7.6894  -7.4480  -7.2745  -5.4637
    -5.3373  -5.3056  -4.6231  -4.2133  -3.9735  -2.7475   0.9838   3.3303
     3.4321   4.6569

     occupation numbers 
     1.0000   1.0000   1.0000   1.0000   1.0000   1.0000   1.0000   1.0000
     1.0000   1.0000   1.0000   1.0000   1.0000   1.0000   1.0000   1.0000
     1.0000   1.0000   1.0000   1.0000   1.0000   1.0000   0.0000   0.0000
     0.0000   0.0000

          k = 0.0000 0.1400 0.0000 (267787 PWs)   bands (ev):

   -28.0119 -27.7596 -26.7629 -26.6370 -18.5527 -16.2256 -12.9649 -11.0201
   -10.0360  -9.8920  -8.4470  -8.3035  -7.9600  -7.3219  -7.2020  -5.6431
    -5.5930  -5.4107  -4.7447  -4.1842  -3.8542  -2.8758   1.3839   3.4036
     3.4099   5.1655

     occupation numbers 
     1.0000   1.0000   1.0000   1.0000   1.0000   1.0000   1.0000   1.0000
     1.0000   1.0000   1.0000   1.0000   1.0000   1.0000   1.0000   1.0000
     1.0000   1.0000   1.0000   1.0000   1.0000   1.0000   0.0000   0.0000
     0.0000   0.0000

          k = 0.0000 0.2100 0.0000 (267682 PWs)   bands (ev):

   -27.8760 -27.6775 -26.8948 -26.7783 -18.2524 -16.7950 -12.4964 -11.1612
    -9.8811  -9.4970  -8.4134  -8.3606  -8.2195  -7.4447  -6.8620  -5.9647
    -5.7083  -5.5449  -4.8157  -4.2897  -3.6832  -3.0577   1.9374   3.2984
     3.5402   4.4203

     occupation numbers 
     1.0000   1.0000   1.0000   1.0000   1.0000   1.0000   1.0000   1.0000
     1.0000   1.0000   1.0000   1.0000   1.0000   1.0000   1.0000   1.0000
     1.0000   1.0000   1.0000   1.0000   1.0000   1.0000   0.0000   0.0000
     0.0000   0.0000

          k = 0.0000 0.2799 0.0000 (267762 PWs)   bands (ev):

   -27.7311 -27.6476 -26.9695 -26.9144 -17.8463 -17.3514 -12.0025 -11.5314
    -9.5045  -9.2221  -8.7275  -8.6123  -7.9418  -7.6631  -6.5282  -6.2476
    -5.7352  -5.6678  -4.7362  -4.5153  -3.4814  -3.2668   2.5294   3.0212
     3.7285   4.0142

     occupation numbers 
     1.0000   1.0000   1.0000   1.0000   1.0000   1.0000   1.0000   1.0000
     1.0000   1.0000   1.0000   1.0000   1.0000   1.0000   1.0000   1.0000
     1.0000   1.0000   1.0000   1.0000   1.0000   1.0000   0.0000   0.0000
     0.0000   0.0000

          k = 0.1111 0.0000 0.0000 (267833 PWs)   bands (ev):

   -28.0519 -27.7782 -26.6140 -26.4982 -18.6445 -15.3759 -13.4590 -11.0005
   -10.2539  -9.9546  -9.3335  -8.3531  -7.7208  -7.5574  -7.4462  -5.7511
    -5.5515  -5.2917  -4.6869  -4.3341  -4.1585  -3.2387   1.0793   4.0920
     4.2345   4.4315

     occupation numbers 
     1.0000   1.0000   1.0000   1.0000   1.0000   1.0000   1.0000   1.0000
     1.0000   1.0000   1.0000   1.0000   1.0000   1.0000   1.0000   1.0000
     1.0000   1.0000   1.0000   1.0000   1.0000   1.0000   0.0000   0.0000
     0.0000   0.0000

          k = 0.1111 0.0700 0.0000 (267762 PWs)   bands (ev):

   -28.0211 -27.7544 -26.6511 -26.5325 -18.5831 -15.5938 -13.2864 -10.9660
   -10.1535 -10.0021  -9.2727  -8.3771  -7.7342  -7.6569  -7.3588  -5.8338
    -5.5850  -5.2876  -4.6941  -4.3120  -4.1706  -3.2997   1.2081   4.2286
     4.2579   4.4493

     occupation numbers 
     1.0000   1.0000   1.0000   1.0000   1.0000   1.0000   1.0000   1.0000
     1.0000   1.0000   1.0000   1.0000   1.0000   1.0000   1.0000   1.0000
     1.0000   1.0000   1.0000   1.0000   1.0000   1.0000   0.0000   0.0000
     0.0000   0.0000

          k = 0.1111 0.1400 0.0000 (267730 PWs)   bands (ev):

   -27.9332 -27.6901 -26.7505 -26.6278 -18.4008 -16.0853 -12.9033 -10.9409
   -10.0621  -9.9097  -9.0909  -8.4602  -7.9154  -7.7774  -7.1256  -5.9519
    -5.6569  -5.3944  -4.7441  -4.2221  -4.2181  -3.4374   1.5671   4.1756
     4.4982   4.6443

     occupation numbers 
     1.0000   1.0000   1.0000   1.0000   1.0000   1.0000   1.0000   1.0000
     1.0000   1.0000   1.0000   1.0000   1.0000   1.0000   1.0000   1.0000
     1.0000   1.0000   1.0000   1.0000   1.0000   1.0000   0.0000   0.0000
     0.0000   0.0000

          k = 0.1111 0.2100 0.0000 (267743 PWs)   bands (ev):

   -27.8031 -27.6120 -26.8737 -26.7608 -18.1033 -16.6552 -12.4470 -11.1202
    -9.9341  -9.6425  -8.8489  -8.6124  -8.2195  -7.8611  -6.7991  -6.0053
    -5.7246  -5.6446  -4.8050  -4.3679  -4.0590  -3.5763   2.0929   3.9161
     4.5640   4.7432

     occupation numbers 
     1.0000   1.0000   1.0000   1.0000   1.0000   1.0000   1.0000   1.0000
     1.0000   1.0000   1.0000   1.0000   1.0000   1.0000   1.0000   1.0000
     1.0000   1.0000   1.0000   1.0000   1.0000   1.0000   0.0000   0.0000
     0.0000   0.0000

          k = 0.1111 0.2799 0.0000 (267738 PWs)   bands (ev):

   -27.6644 -27.5841 -26.9427 -26.8894 -17.7007 -17.2092 -11.9673 -11.5025
    -9.6448  -9.4851  -8.8309  -8.7912  -8.2236  -8.0116  -6.4491  -6.1316
    -5.8176  -5.7823  -4.7700  -4.5920  -3.8789  -3.7141   2.7161   3.3656
     4.6261   4.6751

     occupation numbers 
     1.0000   1.0000   1.0000   1.0000   1.0000   1.0000   1.0000   1.0000
     1.0000   1.0000   1.0000   1.0000   1.0000   1.0000   1.0000   1.0000
     1.0000   1.0000   1.0000   1.0000   1.0000   1.0000   0.0000   0.0000
     0.0000   0.0000

          k = 0.2222 0.0000 0.0000 (267717 PWs)   bands (ev):

   -27.8186 -27.5736 -26.6244 -26.5122 -18.1846 -14.9285 -13.3955 -10.6695
   -10.6447 -10.1258 -10.0555  -8.7509  -8.7051  -7.6875  -7.2054  -6.2207
    -6.1594  -5.6744  -5.2670  -4.6019  -4.2039  -4.1717   1.6709   3.8112
     5.6012   6.0363

     occupation numbers 
     1.0000   1.0000   1.0000   1.0000   1.0000   1.0000   1.0000   1.0000
     1.0000   1.0000   1.0000   1.0000   1.0000   1.0000   1.0000   1.0000
     1.0000   1.0000   1.0000   1.0000   1.0000   1.0000   0.0000   0.0000
     0.0000   0.0000

          k = 0.2222 0.0700 0.0000 (267716 PWs)   bands (ev):

   -27.7920 -27.5533 -26.6536 -26.5398 -18.1252 -15.1648 -13.2207 -10.6579
   -10.6558 -10.1980  -9.9111  -8.9079  -8.5571  -7.8027  -7.1507  -6.2483
    -6.1521  -5.5658  -5.2013  -4.5973  -4.3254  -4.1935   1.7632   3.9736
     5.5781   6.0750

     occupation numbers 
     1.0000   1.0000   1.0000   1.0000   1.0000   1.0000   1.0000   1.0000
     1.0000   1.0000   1.0000   1.0000   1.0000   1.0000   1.0000   1.0000
     1.0000   1.0000   1.0000   1.0000   1.0000   1.0000   0.0000   0.0000
     0.0000   0.0000

          k = 0.2222 0.1400 0.0000 (267724 PWs)   bands (ev):

   -27.7159 -27.4986 -26.7323 -26.6166 -17.9486 -15.6721 -12.8664 -10.7910
   -10.5906 -10.3004  -9.5680  -9.0683  -8.4174  -8.0733  -6.9922  -6.2457
    -6.1332  -5.4269  -5.0646  -4.5751  -4.5743  -4.2775   2.0371   4.3773
     5.4241   5.9729

     occupation numbers 
     1.0000   1.0000   1.0000   1.0000   1.0000   1.0000   1.0000   1.0000
     1.0000   1.0000   1.0000   1.0000   1.0000   1.0000   1.0000   1.0000
     1.0000   1.0000   1.0000   1.0000   1.0000   1.0000   0.0000   0.0000
     0.0000   0.0000

          k = 0.2222 0.2100 0.0000 (267813 PWs)   bands (ev):

   -27.6038 -27.4331 -26.8295 -26.7251 -17.6599 -16.2420 -12.4676 -11.1433
   -10.4733 -10.2891  -9.2251  -9.1830  -8.3350  -8.3262  -6.7393  -6.1824
    -6.0957  -5.5448  -4.9831  -4.7939  -4.5000  -4.3302   2.4821   4.4378
     5.3693   5.9541

     occupation numbers 
     1.0000   1.0000   1.0000   1.0000   1.0000   1.0000   1.0000   1.0000
     1.0000   1.0000   1.0000   1.0000   1.0000   1.0000   1.0000   1.0000
     1.0000   1.0000   1.0000   1.0000   1.0000   1.0000   0.0000   0.0000
     0.0000   0.0000

          k = 0.2222 0.2799 0.0000 (267688 PWs)   bands (ev):

   -27.4841 -27.4125 -26.8808 -26.8323 -17.2682 -16.7878 -12.0407 -11.5892
   -10.3468 -10.2759  -9.2025  -9.1348  -8.3839  -8.3161  -6.4086  -6.1553
    -6.0358  -5.8776  -4.9769  -4.9302  -4.3923  -4.3368   3.0768   3.7782
     5.7936   6.0468

     occupation numbers 
     1.0000   1.0000   1.0000   1.0000   1.0000   1.0000   1.0000   1.0000
     1.0000   1.0000   1.0000   1.0000   1.0000   1.0000   1.0000   1.0000
     1.0000   1.0000   1.0000   1.0000   1.0000   1.0000   0.0000   0.0000
     0.0000   0.0000

          k = 0.3333 0.0000 0.0000 (267621 PWs)   bands (ev):

   -27.4895 -27.2854 -26.6925 -26.5785 -17.4291 -14.2067 -13.9029 -11.4324
   -10.9008 -10.2117  -9.8117  -9.3693  -9.3231  -8.0438  -7.0960  -6.4342
    -6.3999  -6.3417  -5.8816  -4.8985  -4.7596  -4.4930   2.4293   4.0011
     5.6279   6.9654

     occupation numbers 
     1.0000   1.0000   1.0000   1.0000   1.0000   1.0000   1.0000   1.0000
     1.0000   1.0000   1.0000   1.0000   1.0000   1.0000   1.0000   1.0000
     1.0000   1.0000   1.0000   1.0000   1.0000   1.0000   0.0000   0.0000
     0.0000   0.0000

          k = 0.3333 0.0700 0.0000 (267607 PWs)   bands (ev):

   -27.4701 -27.2713 -26.7099 -26.5958 -17.3733 -14.5139 -13.7213 -11.3308
   -11.0907 -10.2537  -9.7393  -9.5098  -9.0541  -8.1616  -7.0054  -6.5053
    -6.4269  -6.1784  -5.7384  -5.0470  -4.7289  -4.4595   2.4921   4.1060
     5.5862   6.9502

     occupation numbers 
     1.0000   1.0000   1.0000   1.0000   1.0000   1.0000   1.0000   1.0000
     1.0000   1.0000   1.0000   1.0000   1.0000   1.0000   1.0000   1.0000
     1.0000   1.0000   1.0000   1.0000   1.0000   1.0000   0.0000   0.0000
     0.0000   0.0000

          k = 0.3333 0.1400 0.0000 (267628 PWs)   bands (ev):

   -27.4150 -27.2339 -26.7565 -26.6447 -17.2070 -15.0295 -13.4898 -11.5207
   -11.1120 -10.3635  -9.5846  -9.5684  -8.7353  -8.3501  -6.8476  -6.5526
    -6.4000  -5.8800  -5.4914  -5.3234  -4.6540  -4.4785   2.6905   4.3727
     5.4392   6.2750

     occupation numbers 
     1.0000   1.0000   1.0000   1.0000   1.0000   1.0000   1.0000   1.0000
     1.0000   1.0000   1.0000   1.0000   1.0000   1.0000   1.0000   1.0000
     1.0000   1.0000   1.0000   1.0000   1.0000   1.0000   0.0000   0.0000
     0.0000   0.0000

          k = 0.3333 0.2100 0.0000 (267629 PWs)   bands (ev):

   -27.3339 -27.1921 -26.8119 -26.7155 -16.9345 -15.5820 -13.2259 -12.0162
   -10.8935 -10.4804  -9.6022  -9.5162  -8.4802  -8.3953  -6.7437  -6.4127
    -6.4032  -5.5886  -5.5661  -5.3205  -4.5790  -4.5598   3.0443   4.5395
     5.2568   5.8733

     occupation numbers 
     1.0000   1.0000   1.0000   1.0000   1.0000   1.0000   1.0000   1.0000
     1.0000   1.0000   1.0000   1.0000   1.0000   1.0000   1.0000   1.0000
     1.0000   1.0000   1.0000   1.0000   1.0000   1.0000   0.0000   0.0000
     0.0000   0.0000

          k = 0.3333 0.2799 0.0000 (267709 PWs)   bands (ev):

   -27.2462 -27.1875 -26.8325 -26.7895 -16.5632 -16.1055 -12.8952 -12.4878
   -10.7184 -10.5890  -9.6104  -9.5673  -8.3405  -8.3326  -6.6427  -6.5067
    -6.1235  -5.8145  -5.3832  -5.2907  -4.5823  -4.5552   3.5537   4.1464
     5.3721   5.5862

     occupation numbers 
     1.0000   1.0000   1.0000   1.0000   1.0000   1.0000   1.0000   1.0000
     1.0000   1.0000   1.0000   1.0000   1.0000   1.0000   1.0000   1.0000
     1.0000   1.0000   1.0000   1.0000   1.0000   1.0000   0.0000   0.0000
     0.0000   0.0000

          k = 0.4444 0.0000 0.0000 (267618 PWs)   bands (ev):

   -27.1441 -26.9824 -26.8631 -26.7335 -16.3963 -15.1394 -13.2463 -12.1009
   -11.1723 -10.5368  -9.6193  -9.4964  -9.2030  -8.5852  -7.2037  -6.9473
    -6.3890  -6.2508  -6.0323  -5.4848  -4.8509  -4.7743   3.3259   4.4169
     4.6994   5.8252

     occupation numbers 
     1.0000   1.0000   1.0000   1.0000   1.0000   1.0000   1.0000   1.0000
     1.0000   1.0000   1.0000   1.0000   1.0000   1.0000   1.0000   1.0000
     1.0000   1.0000   1.0000   1.0000   1.0000   1.0000   0.0000   0.0000
     0.0000   0.0000

          k = 0.4444 0.0700 0.0000 (267644 PWs)   bands (ev):

   -27.1353 -26.9782 -26.8658 -26.7389 -16.3464 -15.1065 -13.4460 -12.3180
   -11.0415 -10.4551  -9.6623  -9.6379  -9.0039  -8.6029  -7.0666  -6.8181
    -6.4483  -6.4255  -5.8533  -5.5460  -4.7949  -4.7049   3.3708   4.4416
     4.7035   5.6842

     occupation numbers 
     1.0000   1.0000   1.0000   1.0000   1.0000   1.0000   1.0000   1.0000
     1.0000   1.0000   1.0000   1.0000   1.0000   1.0000   1.0000   1.0000
     1.0000   1.0000   1.0000   1.0000   1.0000   1.0000   0.0000   0.0000
     0.0000   0.0000

          k = 0.4444 0.1400 0.0000 (267647 PWs)   bands (ev):

   -27.1107 -26.9701 -26.8704 -26.7546 -16.1980 -15.0261 -13.8637 -12.7887
   -10.8104 -10.3779  -9.8458  -9.7234  -8.6995  -8.5458  -6.7565  -6.6821
    -6.5522  -6.4854  -5.6438  -5.5967  -4.6811  -4.6210   3.5146   4.4854
     4.7638   5.4232

     occupation numbers 
     1.0000   1.0000   1.0000   1.0000   1.0000   1.0000   1.0000   1.0000
     1.0000   1.0000   1.0000   1.0000   1.0000   1.0000   1.0000   1.0000
     1.0000   1.0000   1.0000   1.0000   1.0000   1.0000   0.0000   0.0000
     0.0000   0.0000

          k = 0.4444 0.2100 0.0000 (267683 PWs)   bands (ev):

   -27.0747 -26.9729 -26.8648 -26.7793 -15.9558 -15.0127 -14.1832 -13.3048
   -10.6449 -10.4211  -9.9262  -9.8495  -8.4350  -8.3903  -6.8630  -6.7305
    -6.3530  -6.0748  -5.5882  -5.5062  -4.6216  -4.6107   3.7615   4.4317
     4.9908   5.2384

     occupation numbers 
     1.0000   1.0000   1.0000   1.0000   1.0000   1.0000   1.0000   1.0000
     1.0000   1.0000   1.0000   1.0000   1.0000   1.0000   1.0000   1.0000
     1.0000   1.0000   1.0000   1.0000   1.0000   1.0000   0.0000   0.0000
     0.0000   0.0000

          k = 0.4444 0.2799 0.0000 (267651 PWs)   bands (ev):

   -27.0340 -26.9967 -26.8417 -26.8101 -15.6325 -15.2679 -14.1100 -13.7679
   -10.5584 -10.4974  -9.9491  -9.9315  -8.2833  -8.2734  -6.9246  -6.8739
    -5.9643  -5.7452  -5.6419  -5.5062  -4.6475  -4.6221   4.0543   4.2867
     5.2064   5.2091

     occupation numbers 
     1.0000   1.0000   1.0000   1.0000   1.0000   1.0000   1.0000   1.0000
     1.0000   1.0000   1.0000   1.0000   1.0000   1.0000   1.0000   1.0000
     1.0000   1.0000   1.0000   1.0000   1.0000   1.0000   0.0000   0.0000
     0.0000   0.0000

     the Fermi energy is    -0.4493 ev

!    total energy              =    -240.24642683 Ry
     estimated scf accuracy    <          1.3E-14 Ry
     smearing contrib. (-TS)   =      -0.00000000 Ry
     internal energy E=F+TS    =    -240.24642683 Ry

     The total energy is F=E-TS. E is the sum of the following terms:
     one-electron contribution =   -1261.23834849 Ry
     hartree contribution      =     644.44645969 Ry
     xc contribution           =     -51.69333373 Ry
     ewald contribution        =     428.23879571 Ry

     convergence has been achieved in   8 iterations

     negative rho (up, down):  5.203E-06 0.000E+00

     Forces acting on atoms (cartesian axes, Ry/au):

     atom    1 type  1   force =    -0.00000000    0.00000136    0.00000065
     atom    2 type  1   force =     0.00000000    0.00000136   -0.00000065
     atom    3 type  1   force =     0.00000000   -0.00000136    0.00000065
     atom    4 type  1   force =     0.00000000   -0.00000136   -0.00000065
     atom    5 type  2   force =     0.00000000   -0.01044134   -0.00000111
     atom    6 type  2   force =    -0.00000000   -0.01044134    0.00000111
     atom    7 type  2   force =     0.00000000    0.01044134   -0.00000111
     atom    8 type  2   force =     0.00000000    0.01044134    0.00000111
     The non-local contrib.  to forces
     atom    1 type  1   force =     0.00000000   -0.16678258    0.36464723
     atom    2 type  1   force =     0.00000000   -0.16678258   -0.36464723
     atom    3 type  1   force =     0.00000000    0.16678258    0.36464723
     atom    4 type  1   force =     0.00000000    0.16678258   -0.36464723
     atom    5 type  2   force =     0.00000000   -1.02291803    2.26160126
     atom    6 type  2   force =    -0.00000000   -1.02291803   -2.26160126
     atom    7 type  2   force =     0.00000000    1.02291803    2.26160126
     atom    8 type  2   force =     0.00000000    1.02291803   -2.26160126
     The ionic contribution  to forces
     atom    1 type  1   force =     0.00000000    1.00122790    2.94508701
     atom    2 type  1   force =    -0.00000000    1.00122790   -2.94508701
     atom    3 type  1   force =    -0.00000000   -1.00122790    2.94508701
     atom    4 type  1   force =     0.00000000   -1.00122790   -2.94508701
     atom    5 type  2   force =     0.00000000    3.87402944  -44.60707109
     atom    6 type  2   force =    -0.00000000    3.87402944   44.60707109
     atom    7 type  2   force =    -0.00000000   -3.87402944  -44.60707109
     atom    8 type  2   force =     0.00000000   -3.87402944   44.60707109
     The local contribution  to forces
     atom    1 type  1   force =     0.00000000   -0.83545629   -3.30704331
     atom    2 type  1   force =     0.00000000   -0.83545629    3.30704331
     atom    3 type  1   force =    -0.00000000    0.83545629   -3.30704331
     atom    4 type  1   force =    -0.00000000    0.83545629    3.30704331
     atom    5 type  2   force =     0.00000000   -2.86155279   42.34546906
     atom    6 type  2   force =     0.00000000   -2.86155279  -42.34546906
     atom    7 type  2   force =     0.00000000    2.86155279   42.34546906
     atom    8 type  2   force =     0.00000000    2.86155279  -42.34546906
     The core correction contribution to forces
     atom    1 type  1   force =    -0.00000000    0.00101231   -0.00269033
     atom    2 type  1   force =    -0.00000000    0.00101231    0.00269033
     atom    3 type  1   force =     0.00000000   -0.00101231   -0.00269033
     atom    4 type  1   force =    -0.00000000   -0.00101231    0.00269033
     atom    5 type  2   force =     0.00000000    0.00000000    0.00000000
     atom    6 type  2   force =     0.00000000    0.00000000    0.00000000
     atom    7 type  2   force =     0.00000000    0.00000000    0.00000000
     atom    8 type  2   force =     0.00000000    0.00000000    0.00000000
     The Hubbard contrib.    to forces
     atom    1 type  1   force =     0.00000000    0.00000000    0.00000000
     atom    2 type  1   force =     0.00000000    0.00000000    0.00000000
     atom    3 type  1   force =     0.00000000    0.00000000    0.00000000
     atom    4 type  1   force =     0.00000000    0.00000000    0.00000000
     atom    5 type  2   force =     0.00000000    0.00000000    0.00000000
     atom    6 type  2   force =     0.00000000    0.00000000    0.00000000
     atom    7 type  2   force =     0.00000000    0.00000000    0.00000000
     atom    8 type  2   force =     0.00000000    0.00000000    0.00000000
     The SCF correction term to forces
     atom    1 type  1   force =    -0.00000000    0.00000003    0.00000005
     atom    2 type  1   force =    -0.00000000    0.00000003   -0.00000005
     atom    3 type  1   force =    -0.00000000   -0.00000003    0.00000005
     atom    4 type  1   force =     0.00000000   -0.00000003   -0.00000005
     atom    5 type  2   force =     0.00000000    0.00000000   -0.00000033
     atom    6 type  2   force =     0.00000000    0.00000000    0.00000033
     atom    7 type  2   force =     0.00000000   -0.00000000   -0.00000033
     atom    8 type  2   force =     0.00000000   -0.00000000    0.00000033

     Total force =     0.000004     Total SCF correction =     0.000001
     SCF correction compared to forces is large: reduce conv_thr to get better values


     Computing stress (Cartesian axis) and pressure


     negative rho (up, down):  5.203E-06 0.000E+00
          total   stress  (Ry/bohr**3)                   (kbar)     P=       -0.01
  -0.00000010   0.00000000   0.00000000           -0.01        0.00        0.00
   0.00000000   0.00000003   0.00000000            0.00        0.00        0.00
   0.00000000   0.00000000  -0.00000019            0.00        0.00       -0.03

     kinetic stress (kbar)   9185.26      0.00      0.00
                                0.00   8993.54      0.00
                                0.00      0.00   8359.05

     local   stress (kbar)-162655.43      0.00      0.00
                                0.00-164140.16      0.00
                                0.00      0.00 157329.98

     nonloc. stress (kbar)   1186.67      0.00      0.00
                                0.00   1140.18      0.00
                                0.00      0.00    972.39

     hartree stress (kbar)  81602.21      0.00     -0.00
                                0.00  82035.10     -0.00
                               -0.00     -0.00 -75746.65

     exc-cor stress (kbar)  -2153.34     -0.00      0.00
                               -0.00  -2149.04      0.00
                                0.00      0.00  -2142.88

     corecor stress (kbar)    -74.03      0.00      0.00
                                0.00    -73.86      0.00
                                0.00      0.00    -72.92

     ewald   stress (kbar)  72908.65      0.00      0.00
                                0.00  74194.25      0.00
                                0.00      0.00 -88699.00

     hubbard stress (kbar)      0.00      0.00      0.00
                                0.00      0.00      0.00
                                0.00      0.00      0.00

     DFT-D   stress (kbar)      0.00      0.00      0.00
                                0.00      0.00      0.00
                                0.00      0.00      0.00

     XDM     stress (kbar)      0.00      0.00      0.00
                                0.00      0.00      0.00
                                0.00      0.00      0.00

     dft-nl  stress (kbar)      0.00      0.00      0.00
                                0.00      0.00      0.00
                                0.00      0.00      0.00

     TS-vdW  stress (kbar)      0.00      0.00      0.00
                                0.00      0.00      0.00
                                0.00      0.00      0.00

     MDB     stress (kbar)      0.00      0.00      0.00
                                0.00      0.00      0.00
                                0.00      0.00      0.00

     3D-RISM stress (kbar)      0.00      0.00      0.00
                                0.00      0.00      0.00
                                0.00      0.00      0.00


     BFGS Geometry Optimization
     Energy error            =      0.0E+00 Ry
     Gradient error          =      1.4E-06 Ry/Bohr
     Cell gradient error     =      1.4E-02 kbar

     number of scf cycles    =   1
     number of bfgs steps    =   0

     enthalpy           new  =    -240.2464268252 Ry

     new trust radius        =       0.0000159206 bohr
     new conv_thr            =            1.0E-12 Ry

     new unit-cell volume =   1078.62637 a.u.^3 (   159.83594 Ang^3 )
     density =      1.28862 g/cm^3

CELL_PARAMETERS (angstrom)
   2.628495996   0.000000000   0.000000000
   0.000000000   4.173044451   0.000000000
   0.000000000   0.000000000  14.571830239

ATOMIC_POSITIONS (crystal)
C             0.5000000000        0.1408800102        0.0354712053    0   1   1
C             0.0000000000        0.6408800102       -0.0354712053    0   1   1
C             0.0000000000        0.3591199898        0.0354712053    0   1   1
C             0.5000000000        0.8591199898       -0.0354712053    0   1   1
F             0.5000000000        0.0000000000       -0.1212217230    0   0   1
F             0.0000000000        0.5000000000        0.1212217230    0   0   1
F             0.0000000000        0.5000000000       -0.1212217230    0   0   1
F             0.5000000000        0.0000000000        0.1212217230    0   0   1



     Writing config-only to output data dir ../tmp/fgz.save/
     NEW-OLD atomic charge density approx. for the potential

     negative rho (up, down):  5.210E-06 0.000E+00
     extrapolated charge   43.99992, renormalised to   44.00000

     total cpu time spent up to now is     6639.4 secs

     Self-consistent Calculation

     iteration #  1     ecut=   600.00 Ry     beta= 0.70
     Davidson diagonalization with overlap

---- Real-time Memory Report at c_bands before calling an iterative solver
           197 MiB given to the printing process from OS
             0 MiB allocation reported by mallinfo(arena+hblkhd)
        343044 MiB available memory on the node where the printing process lives
------------------
     ethr =  1.00E-06,  avg # of iterations =  1.0

     Threshold (ethr) on eigenvalues was too large:
     Diagonalizing with lowered threshold

     Davidson diagonalization with overlap

---- Real-time Memory Report at c_bands before calling an iterative solver
           197 MiB given to the printing process from OS
             0 MiB allocation reported by mallinfo(arena+hblkhd)
        343042 MiB available memory on the node where the printing process lives
------------------
     ethr =  1.99E-12,  avg # of iterations =  2.0

     negative rho (up, down):  5.203E-06 0.000E+00

     total cpu time spent up to now is     7088.6 secs

     total energy              =    -240.24642682 Ry
     estimated scf accuracy    <          9.6E-10 Ry

     iteration #  2     ecut=   600.00 Ry     beta= 0.70
     Davidson diagonalization with overlap

---- Real-time Memory Report at c_bands before calling an iterative solver
           197 MiB given to the printing process from OS
             0 MiB allocation reported by mallinfo(arena+hblkhd)
        343047 MiB available memory on the node where the printing process lives
------------------
     ethr =  2.19E-12,  avg # of iterations =  3.5

     negative rho (up, down):  5.203E-06 0.000E+00

     total cpu time spent up to now is     7462.2 secs

     total energy              =    -240.24642682 Ry
[...]
     1.0000   1.0000   1.0000   1.0000   1.0000   1.0000   0.0000   0.0000
     0.0000   0.0000

          k = 0.2222 0.0700 0.0000 (267714 PWs)   bands (ev):

   -27.7919 -27.5533 -26.6536 -26.5398 -18.1252 -15.1648 -13.2207 -10.6579
   -10.6558 -10.1980  -9.9111  -8.9079  -8.5571  -7.8026  -7.1507  -6.2483
    -6.1521  -5.5658  -5.2012  -4.5973  -4.3254  -4.1935   1.7632   3.9736
     5.5782   6.0750

     occupation numbers 
     1.0000   1.0000   1.0000   1.0000   1.0000   1.0000   1.0000   1.0000
     1.0000   1.0000   1.0000   1.0000   1.0000   1.0000   1.0000   1.0000
     1.0000   1.0000   1.0000   1.0000   1.0000   1.0000   0.0000   0.0000
     0.0000   0.0000

          k = 0.2222 0.1400 0.0000 (267720 PWs)   bands (ev):

   -27.7159 -27.4986 -26.7323 -26.6166 -17.9486 -15.6721 -12.8664 -10.7910
   -10.5906 -10.3004  -9.5680  -9.0683  -8.4174  -8.0733  -6.9922  -6.2457
    -6.1332  -5.4268  -5.0645  -4.5751  -4.5743  -4.2775   2.0371   4.3773
     5.4242   5.9729

     occupation numbers 
     1.0000   1.0000   1.0000   1.0000   1.0000   1.0000   1.0000   1.0000
     1.0000   1.0000   1.0000   1.0000   1.0000   1.0000   1.0000   1.0000
     1.0000   1.0000   1.0000   1.0000   1.0000   1.0000   0.0000   0.0000
     0.0000   0.0000

          k = 0.2222 0.2100 0.0000 (267813 PWs)   bands (ev):

   -27.6038 -27.4331 -26.8295 -26.7251 -17.6600 -16.2421 -12.4676 -11.1433
   -10.4733 -10.2891  -9.2251  -9.1830  -8.3350  -8.3262  -6.7393  -6.1824
    -6.0957  -5.5448  -4.9830  -4.7939  -4.4999  -4.3302   2.4821   4.4378
     5.3693   5.9541

     occupation numbers 
     1.0000   1.0000   1.0000   1.0000   1.0000   1.0000   1.0000   1.0000
     1.0000   1.0000   1.0000   1.0000   1.0000   1.0000   1.0000   1.0000
     1.0000   1.0000   1.0000   1.0000   1.0000   1.0000   0.0000   0.0000
     0.0000   0.0000

          k = 0.2222 0.2799 0.0000 (267688 PWs)   bands (ev):

   -27.4841 -27.4125 -26.8808 -26.8323 -17.2682 -16.7878 -12.0407 -11.5892
   -10.3468 -10.2759  -9.2025  -9.1348  -8.3838  -8.3161  -6.4085  -6.1553
    -6.0358  -5.8775  -4.9768  -4.9302  -4.3923  -4.3368   3.0768   3.7782
     5.7937   6.0467

     occupation numbers 
     1.0000   1.0000   1.0000   1.0000   1.0000   1.0000   1.0000   1.0000
     1.0000   1.0000   1.0000   1.0000   1.0000   1.0000   1.0000   1.0000
     1.0000   1.0000   1.0000   1.0000   1.0000   1.0000   0.0000   0.0000
     0.0000   0.0000

          k = 0.3333 0.0000 0.0000 (267621 PWs)   bands (ev):

   -27.4895 -27.2854 -26.6925 -26.5785 -17.4291 -14.2067 -13.9028 -11.4325
   -10.9007 -10.2117  -9.8117  -9.3693  -9.3231  -8.0437  -7.0960  -6.4342
    -6.3998  -6.3417  -5.8816  -4.8985  -4.7596  -4.4930   2.4293   4.0011
     5.6279   6.9654

     occupation numbers 
     1.0000   1.0000   1.0000   1.0000   1.0000   1.0000   1.0000   1.0000
     1.0000   1.0000   1.0000   1.0000   1.0000   1.0000   1.0000   1.0000
     1.0000   1.0000   1.0000   1.0000   1.0000   1.0000   0.0000   0.0000
     0.0000   0.0000

          k = 0.3333 0.0700 0.0000 (267607 PWs)   bands (ev):

   -27.4701 -27.2712 -26.7098 -26.5958 -17.3733 -14.5139 -13.7212 -11.3308
   -11.0907 -10.2537  -9.7392  -9.5098  -9.0541  -8.1616  -7.0054  -6.5053
    -6.4269  -6.1784  -5.7384  -5.0470  -4.7289  -4.4595   2.4921   4.1060
     5.5863   6.7697

     occupation numbers 
     1.0000   1.0000   1.0000   1.0000   1.0000   1.0000   1.0000   1.0000
     1.0000   1.0000   1.0000   1.0000   1.0000   1.0000   1.0000   1.0000
     1.0000   1.0000   1.0000   1.0000   1.0000   1.0000   0.0000   0.0000
     0.0000   0.0000

          k = 0.3333 0.1400 0.0000 (267626 PWs)   bands (ev):

   -27.4150 -27.2338 -26.7565 -26.6447 -17.2070 -15.0295 -13.4898 -11.5207
   -11.1120 -10.3635  -9.5846  -9.5684  -8.7353  -8.3500  -6.8476  -6.5526
    -6.4000  -5.8800  -5.4914  -5.3234  -4.6540  -4.4785   2.6905   4.3727
     5.4393   6.2750

     occupation numbers 
     1.0000   1.0000   1.0000   1.0000   1.0000   1.0000   1.0000   1.0000
     1.0000   1.0000   1.0000   1.0000   1.0000   1.0000   1.0000   1.0000
     1.0000   1.0000   1.0000   1.0000   1.0000   1.0000   0.0000   0.0000
     0.0000   0.0000

          k = 0.3333 0.2100 0.0000 (267625 PWs)   bands (ev):

   -27.3339 -27.1920 -26.8119 -26.7155 -16.9345 -15.5821 -13.2259 -12.0162
   -10.8935 -10.4804  -9.6021  -9.5162  -8.4802  -8.3953  -6.7437  -6.4127
    -6.4032  -5.5886  -5.5661  -5.3205  -4.5790  -4.5598   3.0443   4.5395
     5.2568   5.8734

     occupation numbers 
     1.0000   1.0000   1.0000   1.0000   1.0000   1.0000   1.0000   1.0000
     1.0000   1.0000   1.0000   1.0000   1.0000   1.0000   1.0000   1.0000
     1.0000   1.0000   1.0000   1.0000   1.0000   1.0000   0.0000   0.0000
     0.0000   0.0000

          k = 0.3333 0.2799 0.0000 (267707 PWs)   bands (ev):

   -27.2462 -27.1875 -26.8324 -26.7895 -16.5632 -16.1055 -12.8952 -12.4878
   -10.7184 -10.5890  -9.6104  -9.5673  -8.3405  -8.3326  -6.6427  -6.5067
    -6.1235  -5.8145  -5.3832  -5.2907  -4.5823  -4.5552   3.5537   4.1464
     5.3721   5.5862

     occupation numbers 
     1.0000   1.0000   1.0000   1.0000   1.0000   1.0000   1.0000   1.0000
     1.0000   1.0000   1.0000   1.0000   1.0000   1.0000   1.0000   1.0000
     1.0000   1.0000   1.0000   1.0000   1.0000   1.0000   0.0000   0.0000
     0.0000   0.0000

          k = 0.4444 0.0000 0.0000 (267618 PWs)   bands (ev):

   -27.1441 -26.9824 -26.8630 -26.7335 -16.3963 -15.1394 -13.2463 -12.1009
   -11.1723 -10.5368  -9.6193  -9.4964  -9.2030  -8.5852  -7.2037  -6.9473
    -6.3890  -6.2508  -6.0323  -5.4848  -4.8509  -4.7742   3.3259   4.4169
     4.6994   5.8252

     occupation numbers 
     1.0000   1.0000   1.0000   1.0000   1.0000   1.0000   1.0000   1.0000
     1.0000   1.0000   1.0000   1.0000   1.0000   1.0000   1.0000   1.0000
     1.0000   1.0000   1.0000   1.0000   1.0000   1.0000   0.0000   0.0000
     0.0000   0.0000

          k = 0.4444 0.0700 0.0000 (267644 PWs)   bands (ev):

   -27.1353 -26.9781 -26.8658 -26.7389 -16.3464 -15.1065 -13.4460 -12.3180
   -11.0415 -10.4551  -9.6623  -9.6379  -9.0039  -8.6029  -7.0666  -6.8181
    -6.4483  -6.4255  -5.8533  -5.5460  -4.7949  -4.7049   3.3708   4.4416
     4.7035   5.6842

     occupation numbers 
     1.0000   1.0000   1.0000   1.0000   1.0000   1.0000   1.0000   1.0000
     1.0000   1.0000   1.0000   1.0000   1.0000   1.0000   1.0000   1.0000
     1.0000   1.0000   1.0000   1.0000   1.0000   1.0000   0.0000   0.0000
     0.0000   0.0000

          k = 0.4444 0.1400 0.0000 (267645 PWs)   bands (ev):

   -27.1107 -26.9700 -26.8704 -26.7546 -16.1980 -15.0261 -13.8637 -12.7887
   -10.8104 -10.3779  -9.8458  -9.7233  -8.6995  -8.5458  -6.7565  -6.6821
    -6.5522  -6.4854  -5.6438  -5.5967  -4.6811  -4.6210   3.5146   4.4854
     4.7638   5.4232

     occupation numbers 
     1.0000   1.0000   1.0000   1.0000   1.0000   1.0000   1.0000   1.0000
     1.0000   1.0000   1.0000   1.0000   1.0000   1.0000   1.0000   1.0000
     1.0000   1.0000   1.0000   1.0000   1.0000   1.0000   0.0000   0.0000
     0.0000   0.0000

          k = 0.4444 0.2100 0.0000 (267683 PWs)   bands (ev):

   -27.0746 -26.9729 -26.8647 -26.7793 -15.9558 -15.0127 -14.1833 -13.3048
   -10.6449 -10.4211  -9.9262  -9.8495  -8.4350  -8.3903  -6.8630  -6.7305
    -6.3529  -6.0748  -5.5882  -5.5062  -4.6216  -4.6107   3.7615   4.4317
     4.9908   5.2384

     occupation numbers 
     1.0000   1.0000   1.0000   1.0000   1.0000   1.0000   1.0000   1.0000
     1.0000   1.0000   1.0000   1.0000   1.0000   1.0000   1.0000   1.0000
     1.0000   1.0000   1.0000   1.0000   1.0000   1.0000   0.0000   0.0000
     0.0000   0.0000

          k = 0.4444 0.2799 0.0000 (267649 PWs)   bands (ev):

   -27.0339 -26.9967 -26.8416 -26.8101 -15.6325 -15.2679 -14.1100 -13.7679
   -10.5584 -10.4974  -9.9490  -9.9314  -8.2832  -8.2734  -6.9246  -6.8739
    -5.9643  -5.7452  -5.6419  -5.5062  -4.6475  -4.6221   4.0543   4.2867
     5.2064   5.2091

     occupation numbers 
     1.0000   1.0000   1.0000   1.0000   1.0000   1.0000   1.0000   1.0000
     1.0000   1.0000   1.0000   1.0000   1.0000   1.0000   1.0000   1.0000
     1.0000   1.0000   1.0000   1.0000   1.0000   1.0000   0.0000   0.0000
     0.0000   0.0000

     the Fermi energy is    -0.4493 ev

!    total energy              =    -240.24642682 Ry
     estimated scf accuracy    <          3.4E-13 Ry
     smearing contrib. (-TS)   =      -0.00000000 Ry
     internal energy E=F+TS    =    -240.24642682 Ry

     The total energy is F=E-TS. E is the sum of the following terms:
     one-electron contribution =   -1261.24099268 Ry
     hartree contribution      =     644.44780456 Ry
     xc contribution           =     -51.69334109 Ry
     ewald contribution        =     428.24010239 Ry

     convergence has been achieved in  11 iterations

     negative rho (up, down):  5.203E-06 0.000E+00

     Forces acting on atoms (cartesian axes, Ry/au):

     atom    1 type  1   force =     0.00000000    0.00000001    0.00000028
     atom    2 type  1   force =    -0.00000000    0.00000001   -0.00000028
     atom    3 type  1   force =    -0.00000000   -0.00000001    0.00000028
     atom    4 type  1   force =     0.00000000   -0.00000001   -0.00000028
     atom    5 type  2   force =     0.00000000   -0.01044139   -0.00000072
     atom    6 type  2   force =     0.00000000   -0.01044139    0.00000072
     atom    7 type  2   force =     0.00000000    0.01044139   -0.00000072
     atom    8 type  2   force =     0.00000000    0.01044139    0.00000072
     The non-local contrib.  to forces
     atom    1 type  1   force =     0.00000000   -0.16678353    0.36464575
     atom    2 type  1   force =     0.00000000   -0.16678353   -0.36464575
     atom    3 type  1   force =     0.00000000    0.16678353    0.36464575
     atom    4 type  1   force =    -0.00000000    0.16678353   -0.36464575
     atom    5 type  2   force =     0.00000000   -1.02291927    2.26159885
     atom    6 type  2   force =     0.00000000   -1.02291927   -2.26159885
     atom    7 type  2   force =     0.00000000    1.02291927    2.26159885
     atom    8 type  2   force =    -0.00000000    1.02291927   -2.26159885
     The ionic contribution  to forces
     atom    1 type  1   force =     0.00000000    1.00118398    2.94510005
     atom    2 type  1   force =     0.00000000    1.00118398   -2.94510005
     atom    3 type  1   force =    -0.00000000   -1.00118398    2.94510005
     atom    4 type  1   force =    -0.00000000   -1.00118398   -2.94510005
     atom    5 type  2   force =    -0.00000000    3.87404463  -44.60717447
     atom    6 type  2   force =    -0.00000000    3.87404463   44.60717447
     atom    7 type  2   force =     0.00000000   -3.87404463  -44.60717447
     atom    8 type  2   force =    -0.00000000   -3.87404463   44.60717447
     The local contribution  to forces
     atom    1 type  1   force =     0.00000000   -0.83541277   -3.30705546
     atom    2 type  1   force =     0.00000000   -0.83541277    3.30705546
     atom    3 type  1   force =    -0.00000000    0.83541277   -3.30705546
     atom    4 type  1   force =    -0.00000000    0.83541277    3.30705546
     atom    5 type  2   force =    -0.00000000   -2.86156727   42.34557605
     atom    6 type  2   force =    -0.00000000   -2.86156727  -42.34557605
     atom    7 type  2   force =    -0.00000000    2.86156727   42.34557605
     atom    8 type  2   force =    -0.00000000    2.86156727  -42.34557605
     The core correction contribution to forces
     atom    1 type  1   force =     0.00000000    0.00101238   -0.00269031
     atom    2 type  1   force =     0.00000000    0.00101238    0.00269031
     atom    3 type  1   force =    -0.00000000   -0.00101238   -0.00269031
     atom    4 type  1   force =    -0.00000000   -0.00101238    0.00269031
     atom    5 type  2   force =     0.00000000    0.00000000    0.00000000
     atom    6 type  2   force =     0.00000000    0.00000000    0.00000000
     atom    7 type  2   force =     0.00000000    0.00000000    0.00000000
     atom    8 type  2   force =     0.00000000    0.00000000    0.00000000
     The Hubbard contrib.    to forces
     atom    1 type  1   force =     0.00000000    0.00000000    0.00000000
     atom    2 type  1   force =     0.00000000    0.00000000    0.00000000
     atom    3 type  1   force =     0.00000000    0.00000000    0.00000000
     atom    4 type  1   force =     0.00000000    0.00000000    0.00000000
     atom    5 type  2   force =     0.00000000    0.00000000    0.00000000
     atom    6 type  2   force =     0.00000000    0.00000000    0.00000000
     atom    7 type  2   force =     0.00000000    0.00000000    0.00000000
     atom    8 type  2   force =     0.00000000    0.00000000    0.00000000
     The SCF correction term to forces
     atom    1 type  1   force =    -0.00000000   -0.00000005    0.00000026
     atom    2 type  1   force =    -0.00000000   -0.00000005   -0.00000026
     atom    3 type  1   force =     0.00000000    0.00000005    0.00000026
     atom    4 type  1   force =     0.00000000    0.00000005   -0.00000026
     atom    5 type  2   force =    -0.00000000    0.00000000   -0.00000115
     atom    6 type  2   force =     0.00000000    0.00000000    0.00000115
     atom    7 type  2   force =     0.00000000   -0.00000000   -0.00000115
     atom    8 type  2   force =     0.00000000   -0.00000000    0.00000115

     Total force =     0.000002     Total SCF correction =     0.000002
     SCF correction compared to forces is large: reduce conv_thr to get better values


     Computing stress (Cartesian axis) and pressure


     negative rho (up, down):  5.203E-06 0.000E+00
          total   stress  (Ry/bohr**3)                   (kbar)     P=       -0.01
  -0.00000005   0.00000000   0.00000000           -0.01        0.00        0.00
   0.00000000   0.00000002   0.00000000            0.00        0.00        0.00
   0.00000000   0.00000000  -0.00000020            0.00        0.00       -0.03

     kinetic stress (kbar)   9185.30      0.00      0.00
                                0.00   8993.56      0.00
                                0.00      0.00   8359.08

     local   stress (kbar)-162656.37      0.00     -0.00
                                0.00-164141.06      0.00
                               -0.00      0.00 157330.94

     nonloc. stress (kbar)   1186.67      0.00      0.00
                                0.00   1140.19      0.00
                                0.00      0.00    972.39

     hartree stress (kbar)  81602.67     -0.00     -0.00
                               -0.00  82035.54     -0.00
                               -0.00     -0.00 -75747.11

     exc-cor stress (kbar)  -2153.35     -0.00      0.00
                               -0.00  -2149.05      0.00
                                0.00      0.00  -2142.88

     corecor stress (kbar)    -74.03     -0.00      0.00
                               -0.00    -73.86     -0.00
                               -0.00     -0.00    -72.92

     ewald   stress (kbar)  72909.11      0.00     -0.00
                                0.00  74194.68     -0.00
                               -0.00     -0.00 -88699.53

     hubbard stress (kbar)      0.00      0.00      0.00
                                0.00      0.00      0.00
                                0.00      0.00      0.00

     DFT-D   stress (kbar)      0.00      0.00      0.00
                                0.00      0.00      0.00
                                0.00      0.00      0.00

     XDM     stress (kbar)      0.00      0.00      0.00
                                0.00      0.00      0.00
                                0.00      0.00      0.00

     dft-nl  stress (kbar)      0.00      0.00      0.00
                                0.00      0.00      0.00
                                0.00      0.00      0.00

     TS-vdW  stress (kbar)      0.00      0.00      0.00
                                0.00      0.00      0.00
                                0.00      0.00      0.00

     MDB     stress (kbar)      0.00      0.00      0.00
                                0.00      0.00      0.00
                                0.00      0.00      0.00

     3D-RISM stress (kbar)      0.00      0.00      0.00
                                0.00      0.00      0.00
                                0.00      0.00      0.00


     Writing all to output data dir ../tmp/fgz.save/

     init_run     :     86.57s CPU    161.43s WALL (       2 calls)
     electrons    :   7879.01s CPU  14614.28s WALL (       5 calls)
     update_pot   :      2.80s CPU      2.81s WALL (       3 calls)
     forces       :    250.31s CPU    461.53s WALL (       5 calls)
     stress       :    109.07s CPU    215.54s WALL (       5 calls)

     Called by init_run:
     wfcinit      :     83.13s CPU    157.37s WALL (       2 calls)
     wfcinit:atom :      0.05s CPU      0.03s WALL (      50 calls)
     wfcinit:wfcr :     82.07s CPU    155.85s WALL (      50 calls)
     potinit      :      0.60s CPU      0.61s WALL (       2 calls)
     hinit0       :      0.97s CPU      1.02s WALL (       2 calls)

     Called by electrons:
     c_bands      :   7572.52s CPU  13902.62s WALL (      49 calls)
     sum_band     :    294.43s CPU    685.95s WALL (      49 calls)
     v_of_rho     :      1.55s CPU      1.73s WALL (      50 calls)
     v_h          :      0.12s CPU      0.14s WALL (      50 calls)
     v_xc         :      1.72s CPU      1.89s WALL (      60 calls)
     newd         :      8.41s CPU     20.07s WALL (      50 calls)
     mix_rho      :      1.22s CPU      1.62s WALL (      49 calls)

     Called by c_bands:
     init_us_2    :      2.27s CPU      5.79s WALL (    2750 calls)
     init_us_2:cp :      2.26s CPU      5.79s WALL (    2750 calls)
     cegterg      :   7174.03s CPU  13061.07s WALL (    1225 calls)

     Called by sum_band:
     sum_band:wei :      0.00s CPU      0.00s WALL (      49 calls)
     sum_band:loo :    280.30s CPU    652.54s WALL (      49 calls)
     sum_band:buf :      0.33s CPU      0.68s WALL (    1225 calls)
     sum_band:ini :      0.71s CPU      1.40s WALL (    1225 calls)
     sum_band:cal :    252.10s CPU    618.81s WALL (    1225 calls)
     sum_band:bec :      0.01s CPU      0.02s WALL (    1225 calls)
     addusdens    :      5.68s CPU     22.19s WALL (      49 calls)
     addusd:skk   :      0.06s CPU      0.19s WALL (      98 calls)
     addusd:dgemm :      3.68s CPU     16.24s WALL (      98 calls)
     addusd:qvan2 :      1.83s CPU      5.65s WALL (      98 calls)

     Called by *egterg:
     cdiaghg      :    638.01s CPU    665.72s WALL (    4184 calls)
     cegterg:over :   2344.21s CPU   3792.65s WALL (    3134 calls)
     cegterg:upda :    164.42s CPU    335.15s WALL (    3134 calls)
     cegterg:last :    191.74s CPU    380.66s WALL (    2503 calls)
     h_psi        :   1668.81s CPU   4121.11s WALL (    4409 calls)
     s_psi        :     55.79s CPU    141.41s WALL (    4409 calls)
     g_psi        :      0.84s CPU      0.56s WALL (    3134 calls)

     Called by h_psi:
     h_psi:calbec :   1072.97s CPU   2686.82s WALL (    4409 calls)
     vloc_psi     :    316.22s CPU    386.42s WALL (    4409 calls)
     add_vuspsi   :    278.85s CPU   1045.58s WALL (    4409 calls)

     General routines
     calbec       :   1643.06s CPU   3876.54s WALL (    6259 calls)
     fft          :      2.99s CPU      3.27s WALL (     682 calls)
     ffts         :      0.26s CPU      0.34s WALL (      49 calls)
     fftw         :    334.86s CPU    398.16s WALL (  198502 calls)

     Parallel routines

     PWSCF        :      2h18m CPU      4h17m WALL


   This run was terminated on:  12:31:53  18Jan2024            

=------------------------------------------------------------------------------=
   JOB DONE.
=------------------------------------------------------------------------------=
