
     Program PWSCF v.7.1 starts on 15Jan2024 at 13:30:57 

     This program is part of the open-source Quantum ESPRESSO suite
     for quantum simulation of materials; please cite
         "P. Giannozzi et al., J. Phys.:Condens. Matter 21 395502 (2009);
         "P. Giannozzi et al., J. Phys.:Condens. Matter 29 465901 (2017);
         "P. Giannozzi et al., J. Chem. Phys. 152 154105 (2020);
          URL http://www.quantum-espresso.org", 
     in publications or presentations arising from this work. More details at
     http://www.quantum-espresso.org/quote

     Parallel version (MPI), running on    88 processors

     MPI processes distributed on     1 nodes
     351315 MiB available memory on the printing compute node when the environment starts

     Reading input from vc-relax.in

     Current dimensions of program PWSCF are:
     Max number of different atomic species (ntypx) = 10
     Max number of k-points (npk) =  40000
     Max angular momentum in pseudopotentials (lmaxx) =  4

     File ../tmp/fgz.update deleted, as requested

     File ../tmp/fgz.bfgs deleted, as requested
     Message from routine setup:
     using ibrav=0 with symmetry is DISCOURAGED, use correct ibrav instead

     R & G space division:  proc/nbgrp/npool/nimage =      88
     Subspace diagonalization in iterative solution of the eigenvalue problem:
     a serial algorithm will be used


     Parallelization info
     --------------------
     sticks:   dense  smooth     PW     G-vecs:    dense   smooth      PW
     Min          84      84     22                24236    24236    3276
     Max          85      85     23                24275    24275    3293
     Sum        7459    7459   1969              2134655  2134655  289181

     Using Slab Decomposition



     bravais-lattice index     =            0
     lattice parameter (alat)  =       4.9561  a.u.
     unit-cell volume          =    1074.8889 (a.u.)^3
     number of atoms/cell      =            8
     number of atomic types    =            2
     number of electrons       =        44.00
     number of Kohn-Sham states=           26
     kinetic-energy cutoff     =     600.0000  Ry
     charge density cutoff     =    2400.0000  Ry
     scf convergence threshold =      1.0E-06
     mixing beta               =       0.7000
     number of iterations used =            8  plain     mixing
     energy convergence thresh.=      5.0E-04
     force convergence thresh. =      1.0E-04
     press convergence thresh. =      5.0E-02
     Exchange-correlation=  SLA  PW   PBX  PBC
                           (   1   4   3   4   0   0   0)
     nstep                     =           50


     celldm(1)=   4.956062  celldm(2)=   0.000000  celldm(3)=   0.000000
     celldm(4)=   0.000000  celldm(5)=   0.000000  celldm(6)=   0.000000

     crystal axes: (cart. coord. in units of alat)
               a(1) = (   1.000000   0.000000   0.000000 )  
               a(2) = (   0.000000   1.589195   0.000000 )  
               a(3) = (   0.000000   0.000000   5.556180 )  

     reciprocal axes: (cart. coord. in units 2 pi/alat)
               b(1) = (  1.000000  0.000000  0.000000 )  
               b(2) = (  0.000000  0.629249  0.000000 )  
               b(3) = (  0.000000  0.000000  0.179980 )  


     PseudoPot. # 1 for C  read from file:
     ../pseudo/c_pbe_v1.2.uspp.F.UPF
     MD5 check sum: d1aef80898a10debaa0f26306b886e00
     Pseudo is Ultrasoft + core correction, Zval =  4.0
     Generated by new atomic code, or converted to UPF format
     Using radial grid of  721 points,  4 beta functions with: 
                l(1) =   0
                l(2) =   0
                l(3) =   1
                l(4) =   1
     Q(r) pseudized with  8 coefficients,  rinner =    1.100   1.100   1.100


     PseudoPot. # 2 for F  read from file:
     ../pseudo/f_pbe_v1.4.uspp.F.UPF
     MD5 check sum: 4c38b6a325caf53ec0e86aed9459de46
     Pseudo is Ultrasoft, Zval =  7.0
     Generated by new atomic code, or converted to UPF format
     Using radial grid of  799 points,  4 beta functions with: 
                l(1) =   0
                l(2) =   0
                l(3) =   1
                l(4) =   1
     Q(r) pseudized with  8 coefficients,  rinner =    0.950   0.950   0.950


     atomic species   valence    mass     pseudopotential
        C              4.00    12.01070     C ( 1.00)
        F              7.00    18.99840     F ( 1.00)

      8 Sym. Ops., with inversion, found ( 4 have fractional translation)


                                    s                        frac. trans.

      isym =  1     identity                                     

 cryst.   s( 1) = (     1          0          0      )
                  (     0          1          0      )
                  (     0          0          1      )

 cart.    s( 1) = (  1.0000000  0.0000000  0.0000000 )
                  (  0.0000000  1.0000000  0.0000000 )
                  (  0.0000000  0.0000000  1.0000000 )


      isym =  2     180 deg rotation - cart. axis [0,0,1]        

 cryst.   s( 2) = (    -1          0          0      )    f =(  0.5000000 )
                  (     0         -1          0      )       (  0.5000000 )
                  (     0          0          1      )       (  0.0000000 )

 cart.    s( 2) = ( -1.0000000  0.0000000  0.0000000 )    f =(  0.5000000 )
                  (  0.0000000 -1.0000000  0.0000000 )       (  0.7945975 )
                  (  0.0000000  0.0000000  1.0000000 )       (  0.0000000 )


      isym =  3     180 deg rotation - cart. axis [0,1,0]        

 cryst.   s( 3) = (    -1          0          0      )    f =(  0.5000000 )
                  (     0          1          0      )       ( -0.5000000 )
                  (     0          0         -1      )       (  0.0000000 )

 cart.    s( 3) = ( -1.0000000  0.0000000  0.0000000 )    f =(  0.5000000 )
                  (  0.0000000  1.0000000  0.0000000 )       ( -0.7945975 )
                  (  0.0000000  0.0000000 -1.0000000 )       (  0.0000000 )


      isym =  4     180 deg rotation - cart. axis [1,0,0]        

 cryst.   s( 4) = (     1          0          0      )
                  (     0         -1          0      )
                  (     0          0         -1      )

 cart.    s( 4) = (  1.0000000  0.0000000  0.0000000 )
                  (  0.0000000 -1.0000000  0.0000000 )
                  (  0.0000000  0.0000000 -1.0000000 )


      isym =  5     inversion                                    

 cryst.   s( 5) = (    -1          0          0      )
                  (     0         -1          0      )
                  (     0          0         -1      )

 cart.    s( 5) = ( -1.0000000  0.0000000  0.0000000 )
                  (  0.0000000 -1.0000000  0.0000000 )
                  (  0.0000000  0.0000000 -1.0000000 )


      isym =  6     inv. 180 deg rotation - cart. axis [0,0,1]   

 cryst.   s( 6) = (     1          0          0      )    f =(  0.5000000 )
                  (     0          1          0      )       ( -0.5000000 )
                  (     0          0         -1      )       (  0.0000000 )

 cart.    s( 6) = (  1.0000000  0.0000000  0.0000000 )    f =(  0.5000000 )
                  (  0.0000000  1.0000000  0.0000000 )       ( -0.7945975 )
                  (  0.0000000  0.0000000 -1.0000000 )       (  0.0000000 )


      isym =  7     inv. 180 deg rotation - cart. axis [0,1,0]   

 cryst.   s( 7) = (     1          0          0      )    f =(  0.5000000 )
                  (     0         -1          0      )       (  0.5000000 )
                  (     0          0          1      )       (  0.0000000 )

 cart.    s( 7) = (  1.0000000  0.0000000  0.0000000 )    f =(  0.5000000 )
                  (  0.0000000 -1.0000000  0.0000000 )       (  0.7945975 )
                  (  0.0000000  0.0000000  1.0000000 )       (  0.0000000 )


      isym =  8     inv. 180 deg rotation - cart. axis [1,0,0]   

 cryst.   s( 8) = (    -1          0          0      )
                  (     0          1          0      )
                  (     0          0          1      )

 cart.    s( 8) = ( -1.0000000  0.0000000  0.0000000 )
                  (  0.0000000  1.0000000  0.0000000 )
                  (  0.0000000  0.0000000  1.0000000 )


   Cartesian axes

     site n.     atom                  positions (alat units)
         1           C   tau(   1) = (   0.5000000   0.2328171   0.2778090  )
         2           C   tau(   2) = (   0.0000000   1.0274146  -0.2778090  )
         3           C   tau(   3) = (   0.0000000   0.5617804   0.2778090  )
         4           C   tau(   4) = (   0.5000000   1.3563779  -0.2778090  )
         5           F   tau(   5) = (   0.5000000   0.0000000  -0.6560737  )
         6           F   tau(   6) = (   0.0000000   0.7945975   0.6560737  )
         7           F   tau(   7) = (   0.0000000   0.7945975  -0.6560737  )
         8           F   tau(   8) = (   0.5000000   0.0000000   0.6560737  )

   Crystallographic axes

     site n.     atom                  positions (cryst. coord.)
         1           C   tau(   1) = (  0.5000000  0.1465000  0.0500000  )
         2           C   tau(   2) = (  0.0000000  0.6465000 -0.0500000  )
         3           C   tau(   3) = (  0.0000000  0.3535000  0.0500000  )
         4           C   tau(   4) = (  0.5000000  0.8535000 -0.0500000  )
         5           F   tau(   5) = (  0.5000000  0.0000000 -0.1180800  )
         6           F   tau(   6) = (  0.0000000  0.5000000  0.1180800  )
         7           F   tau(   7) = (  0.0000000  0.5000000 -0.1180800  )
         8           F   tau(   8) = (  0.5000000  0.0000000  0.1180800  )

     number of k points=    25  Marzari-Vanderbilt smearing, width (Ry)=  0.0010
                       cart. coord. in units 2pi/alat
        k(    1) = (   0.0000000   0.0000000   0.0000000), wk =   0.0246914
        k(    2) = (   0.0000000   0.0699166   0.0000000), wk =   0.0493827
        k(    3) = (   0.0000000   0.1398332   0.0000000), wk =   0.0493827
        k(    4) = (   0.0000000   0.2097498   0.0000000), wk =   0.0493827
        k(    5) = (   0.0000000   0.2796664   0.0000000), wk =   0.0493827
        k(    6) = (   0.1111111   0.0000000   0.0000000), wk =   0.0493827
        k(    7) = (   0.1111111   0.0699166   0.0000000), wk =   0.0987654
        k(    8) = (   0.1111111   0.1398332   0.0000000), wk =   0.0987654
        k(    9) = (   0.1111111   0.2097498   0.0000000), wk =   0.0987654
        k(   10) = (   0.1111111   0.2796664   0.0000000), wk =   0.0987654
        k(   11) = (   0.2222222   0.0000000   0.0000000), wk =   0.0493827
        k(   12) = (   0.2222222   0.0699166   0.0000000), wk =   0.0987654
        k(   13) = (   0.2222222   0.1398332   0.0000000), wk =   0.0987654
        k(   14) = (   0.2222222   0.2097498   0.0000000), wk =   0.0987654
        k(   15) = (   0.2222222   0.2796664   0.0000000), wk =   0.0987654
        k(   16) = (   0.3333333   0.0000000   0.0000000), wk =   0.0493827
        k(   17) = (   0.3333333   0.0699166   0.0000000), wk =   0.0987654
        k(   18) = (   0.3333333   0.1398332   0.0000000), wk =   0.0987654
        k(   19) = (   0.3333333   0.2097498   0.0000000), wk =   0.0987654
        k(   20) = (   0.3333333   0.2796664   0.0000000), wk =   0.0987654
        k(   21) = (   0.4444444   0.0000000   0.0000000), wk =   0.0493827
        k(   22) = (   0.4444444   0.0699166   0.0000000), wk =   0.0987654
        k(   23) = (   0.4444444   0.1398332   0.0000000), wk =   0.0987654
        k(   24) = (   0.4444444   0.2097498   0.0000000), wk =   0.0987654
        k(   25) = (   0.4444444   0.2796664   0.0000000), wk =   0.0987654

                       cryst. coord.
        k(    1) = (   0.0000000   0.0000000   0.0000000), wk =   0.0246914
        k(    2) = (   0.0000000   0.1111111   0.0000000), wk =   0.0493827
        k(    3) = (   0.0000000   0.2222222   0.0000000), wk =   0.0493827
        k(    4) = (   0.0000000   0.3333333   0.0000000), wk =   0.0493827
        k(    5) = (   0.0000000   0.4444444   0.0000000), wk =   0.0493827
        k(    6) = (   0.1111111   0.0000000   0.0000000), wk =   0.0493827
        k(    7) = (   0.1111111   0.1111111   0.0000000), wk =   0.0987654
        k(    8) = (   0.1111111   0.2222222   0.0000000), wk =   0.0987654
        k(    9) = (   0.1111111   0.3333333   0.0000000), wk =   0.0987654
        k(   10) = (   0.1111111   0.4444444   0.0000000), wk =   0.0987654
        k(   11) = (   0.2222222   0.0000000   0.0000000), wk =   0.0493827
        k(   12) = (   0.2222222   0.1111111   0.0000000), wk =   0.0987654
        k(   13) = (   0.2222222   0.2222222   0.0000000), wk =   0.0987654
        k(   14) = (   0.2222222   0.3333333   0.0000000), wk =   0.0987654
        k(   15) = (   0.2222222   0.4444444   0.0000000), wk =   0.0987654
        k(   16) = (   0.3333333   0.0000000   0.0000000), wk =   0.0493827
        k(   17) = (   0.3333333   0.1111111   0.0000000), wk =   0.0987654
        k(   18) = (   0.3333333   0.2222222   0.0000000), wk =   0.0987654
        k(   19) = (   0.3333333   0.3333333   0.0000000), wk =   0.0987654
        k(   20) = (   0.3333333   0.4444444   0.0000000), wk =   0.0987654
        k(   21) = (   0.4444444   0.0000000   0.0000000), wk =   0.0493827
        k(   22) = (   0.4444444   0.1111111   0.0000000), wk =   0.0987654
        k(   23) = (   0.4444444   0.2222222   0.0000000), wk =   0.0987654
        k(   24) = (   0.4444444   0.3333333   0.0000000), wk =   0.0987654
        k(   25) = (   0.4444444   0.4444444   0.0000000), wk =   0.0987654

     Dense  grid:  2134655 G-vectors     FFT dimensions: (  80, 128, 432)

     Dynamical RAM for                 wfc:       1.20 MB

     Dynamical RAM for     wfc (w. buffer):      31.26 MB

     Dynamical RAM for           str. fact:       0.74 MB

     Dynamical RAM for           local pot:       0.00 MB

     Dynamical RAM for          nlocal pot:       2.96 MB

     Dynamical RAM for                qrad:       4.49 MB

     Dynamical RAM for          rho,v,vnew:       2.28 MB

     Dynamical RAM for               rhoin:       0.76 MB

     Dynamical RAM for            rho*nmix:       5.93 MB

     Dynamical RAM for           G-vectors:       1.57 MB

     Dynamical RAM for          h,s,v(r/c):       0.12 MB

     Dynamical RAM for          <psi|beta>:       0.03 MB

     Dynamical RAM for                 psi:       2.40 MB

     Dynamical RAM for                hpsi:       2.40 MB

     Dynamical RAM for                spsi:       2.40 MB

     Dynamical RAM for      wfcinit/wfcrot:       2.98 MB

     Dynamical RAM for           addusdens:      17.41 MB

     Dynamical RAM for          addusforce:      19.82 MB

     Dynamical RAM for         addusstress:      18.52 MB

     Estimated static dynamical RAM per process >      47.14 MB

     Estimated max dynamical RAM per process >      72.88 MB

     Estimated total dynamical RAM >       6.26 GB

     Initial potential from superposition of free atoms

     starting charge      43.9998, renormalised to      44.0000

     negative rho (up, down):  1.101E-03 0.000E+00
     Starting wfcs are   32 randomized atomic wfcs

     total cpu time spent up to now is       81.4 secs

     Self-consistent Calculation

     iteration #  1     ecut=   600.00 Ry     beta= 0.70
     Davidson diagonalization with overlap

---- Real-time Memory Report at c_bands before calling an iterative solver
           126 MiB given to the printing process from OS
             0 MiB allocation reported by mallinfo(arena+hblkhd)
        346159 MiB available memory on the node where the printing process lives
------------------
     ethr =  1.00E-02,  avg # of iterations =  3.8

     negative rho (up, down):  2.883E-04 0.000E+00

     total cpu time spent up to now is      457.7 secs

     total energy              =    -239.69466896 Ry
     estimated scf accuracy    <       0.45799804 Ry

     iteration #  2     ecut=   600.00 Ry     beta= 0.70
     Davidson diagonalization with overlap

---- Real-time Memory Report at c_bands before calling an iterative solver
           143 MiB given to the printing process from OS
             0 MiB allocation reported by mallinfo(arena+hblkhd)
        343828 MiB available memory on the node where the printing process lives
------------------
     ethr =  1.04E-03,  avg # of iterations =  3.9

     negative rho (up, down):  1.114E-04 0.000E+00

     total cpu time spent up to now is      842.6 secs

     total energy              =    -239.76456171 Ry
     estimated scf accuracy    <       0.08934433 Ry

     iteration #  3     ecut=   600.00 Ry     beta= 0.70
     Davidson diagonalization with overlap

---- Real-time Memory Report at c_bands before calling an iterative solver
           147 MiB given to the printing process from OS
             0 MiB allocation reported by mallinfo(arena+hblkhd)
        343760 MiB available memory on the node where the printing process lives
------------------
     ethr =  2.03E-04,  avg # of iterations =  7.0

     negative rho (up, down):  3.099E-05 0.000E+00

     total cpu time spent up to now is     1429.8 secs

     total energy              =    -239.78900157 Ry
     estimated scf accuracy    <       0.01800163 Ry

     iteration #  4     ecut=   600.00 Ry     beta= 0.70
     Davidson diagonalization with overlap

---- Real-time Memory Report at c_bands before calling an iterative solver
           147 MiB given to the printing process from OS
             0 MiB allocation reported by mallinfo(arena+hblkhd)
        343667 MiB available memory on the node where the printing process lives
------------------
     ethr =  4.09E-05,  avg # of iterations =  4.6

     negative rho (up, down):  4.769E-06 0.000E+00

     total cpu time spent up to now is     1862.5 secs

     total energy              =    -239.79264585 Ry
     estimated scf accuracy    <       0.00044730 Ry

     iteration #  5     ecut=   600.00 Ry     beta= 0.70
     Davidson diagonalization with overlap

---- Real-time Memory Report at c_bands before calling an iterative solver
           148 MiB given to the printing process from OS
             0 MiB allocation reported by mallinfo(arena+hblkhd)
        343613 MiB available memory on the node where the printing process lives
------------------
     ethr =  1.02E-06,  avg # of iterations =  6.3

     negative rho (up, down):  3.323E-06 0.000E+00

     total cpu time spent up to now is     2420.6 secs

     total energy              =    -239.79273098 Ry
     estimated scf accuracy    <       0.00001640 Ry

     iteration #  6     ecut=   600.00 Ry     beta= 0.70
     Davidson diagonalization with overlap

---- Real-time Memory Report at c_bands before calling an iterative solver
           149 MiB given to the printing process from OS
             0 MiB allocation reported by mallinfo(arena+hblkhd)
        343540 MiB available memory on the node where the printing process lives
------------------
     ethr =  3.73E-08,  avg # of iterations =  2.5

     negative rho (up, down):  3.391E-06 0.000E+00

     total cpu time spent up to now is     2716.3 secs

     End of self-consistent calculation

          k = 0.0000 0.0000 0.0000 (266941 PWs)   bands (ev):

   -30.4292 -30.3224 -29.0482 -28.9900 -15.8028 -14.5537 -11.5380 -11.4738
   -10.7889 -10.1641  -9.4379  -9.3212  -8.9354  -8.2581  -7.7308  -6.6761
    -6.6634  -6.5840  -3.2060  -1.7069  -1.1651  -0.9276   3.2002   4.2999
     4.5503   4.9604

     occupation numbers 
     1.0000   1.0000   1.0000   1.0000   1.0000   1.0000   1.0000   1.0000
     1.0000   1.0000   1.0000   1.0000   1.0000   1.0000   1.0000   1.0000
     1.0000   1.0000   1.0000   1.0000   1.0000   1.0000   0.0000   0.0000
     0.0000   0.0000

          k = 0.0000 0.0699 0.0000 (266903 PWs)   bands (ev):

   -30.4065 -30.3031 -29.0756 -29.0178 -15.7465 -14.5356 -11.5840 -11.4470
   -10.8587 -10.1033  -9.4321  -9.2919  -8.9235  -8.2285  -7.8457  -6.7506
    -6.7023  -6.6212  -3.1122  -1.6683  -1.1683  -0.9334   3.3960   4.3170
     4.6599   4.9809

     occupation numbers 
     1.0000   1.0000   1.0000   1.0000   1.0000   1.0000   1.0000   1.0000
     1.0000   1.0000   1.0000   1.0000   1.0000   1.0000   1.0000   1.0000
     1.0000   1.0000   1.0000   1.0000   1.0000   1.0000   0.0000   0.0000
     0.0000   0.0000

          k = 0.0000 0.1398 0.0000 (266743 PWs)   bands (ev):

   -30.3436 -30.2517 -29.1480 -29.0931 -15.5838 -14.5132 -11.8019 -11.2000
   -11.0334  -9.9682  -9.4263  -9.2102  -8.8963  -8.3909  -7.9358  -6.9444
    -6.8003  -6.7193  -2.8462  -1.5626  -1.2097  -0.9580   3.9190   4.3813
     4.9752   5.0461

     occupation numbers 
     1.0000   1.0000   1.0000   1.0000   1.0000   1.0000   1.0000   1.0000
     1.0000   1.0000   1.0000   1.0000   1.0000   1.0000   1.0000   1.0000
     1.0000   1.0000   1.0000   1.0000   1.0000   1.0000   0.0000   0.0000
     0.0000   0.0000

          k = 0.0000 0.2097 0.0000 (266714 PWs)   bands (ev):

   -30.2573 -30.1890 -29.2361 -29.1918 -15.3347 -14.5671 -11.9345 -11.3500
   -10.7393  -9.8182  -9.4435  -9.0953  -8.9073  -8.8782  -7.8031  -7.1907
    -6.9075  -6.8416  -2.4566  -1.4150  -1.3524  -1.0164   4.4884   4.4906
     5.3076   5.4899

     occupation numbers 
     1.0000   1.0000   1.0000   1.0000   1.0000   1.0000   1.0000   1.0000
     1.0000   1.0000   1.0000   1.0000   1.0000   1.0000   1.0000   1.0000
     1.0000   1.0000   1.0000   1.0000   1.0000   1.0000   0.0000   0.0000
     0.0000   0.0000

          k = 0.0000 0.2797 0.0000 (266840 PWs)   bands (ev):

   -30.1800 -30.1534 -29.2918 -29.2736 -15.0370 -14.7540 -11.8721 -11.6444
   -10.2072  -9.7486  -9.4973  -9.4526  -8.9798  -8.9011  -7.6305  -7.4284
    -6.9649  -6.9385  -2.0220  -1.6308  -1.2572  -1.1179   4.6011   4.6558
     6.0674   6.1923

     occupation numbers 
     1.0000   1.0000   1.0000   1.0000   1.0000   1.0000   1.0000   1.0000
     1.0000   1.0000   1.0000   1.0000   1.0000   1.0000   1.0000   1.0000
     1.0000   1.0000   1.0000   1.0000   1.0000   1.0000   0.0000   0.0000
     0.0000   0.0000

          k = 0.1111 0.0000 0.0000 (266853 PWs)   bands (ev):

   -30.3563 -30.2529 -29.0502 -28.9932 -15.6744 -14.4384 -11.4523 -11.3998
   -10.8065 -10.1645  -9.7947  -9.5529  -9.3087  -8.2605  -7.6892  -6.7710
    -6.7029  -6.6560  -3.2462  -2.2582  -1.4961  -1.1034   3.4760   4.8066
     4.8888   5.1703

     occupation numbers 
     1.0000   1.0000   1.0000   1.0000   1.0000   1.0000   1.0000   1.0000
     1.0000   1.0000   1.0000   1.0000   1.0000   1.0000   1.0000   1.0000
     1.0000   1.0000   1.0000   1.0000   1.0000   1.0000   0.0000   0.0000
     0.0000   0.0000

          k = 0.1111 0.0699 0.0000 (266849 PWs)   bands (ev):

   -30.3347 -30.2345 -29.0757 -29.0191 -15.6204 -14.4270 -11.5562 -11.3276
   -10.8746 -10.1226  -9.7567  -9.5495  -9.2871  -8.2130  -7.8375  -6.8686
    -6.6853  -6.6507  -3.1601  -2.2166  -1.5162  -1.1209   3.6506   4.8572
     4.9600   5.2394

     occupation numbers 
     1.0000   1.0000   1.0000   1.0000   1.0000   1.0000   1.0000   1.0000
     1.0000   1.0000   1.0000   1.0000   1.0000   1.0000   1.0000   1.0000
     1.0000   1.0000   1.0000   1.0000   1.0000   1.0000   0.0000   0.0000
     0.0000   0.0000

          k = 0.1111 0.1398 0.0000 (266782 PWs)   bands (ev):

   -30.2745 -30.1855 -29.1433 -29.0897 -15.4645 -14.4198 -11.7642 -11.1813
   -10.9965 -10.0460  -9.6572  -9.5510  -9.2294  -8.3047  -7.9775  -7.0084
    -6.7577  -6.6845  -2.9193  -2.0989  -1.5718  -1.1931   4.1273   4.9307
     5.2534   5.4331

     occupation numbers 
     1.0000   1.0000   1.0000   1.0000   1.0000   1.0000   1.0000   1.0000
     1.0000   1.0000   1.0000   1.0000   1.0000   1.0000   1.0000   1.0000
     1.0000   1.0000   1.0000   1.0000   1.0000   1.0000   0.0000   0.0000
     0.0000   0.0000

          k = 0.1111 0.2097 0.0000 (266799 PWs)   bands (ev):

   -30.1919 -30.1258 -29.2255 -29.1824 -15.2258 -14.4849 -11.8986 -11.3801
   -10.7283  -9.9834  -9.5755  -9.5750  -9.1559  -8.7148  -7.7987  -7.1297
    -6.9088  -6.7845  -2.5743  -1.9276  -1.6767  -1.3405   4.7267   5.0237
     5.7589   5.7630

     occupation numbers 
     1.0000   1.0000   1.0000   1.0000   1.0000   1.0000   1.0000   1.0000
     1.0000   1.0000   1.0000   1.0000   1.0000   1.0000   1.0000   1.0000
     1.0000   1.0000   1.0000   1.0000   1.0000   1.0000   0.0000   0.0000
     0.0000   0.0000

          k = 0.1111 0.2797 0.0000 (266782 PWs)   bands (ev):

   -30.1179 -30.0922 -29.2773 -29.2596 -14.9410 -14.6695 -11.8557 -11.6539
   -10.3297 -10.0222  -9.6176  -9.6115  -9.0879  -8.9929  -7.5621  -7.3112
    -6.9781  -6.9069  -2.1993  -1.8792  -1.7333  -1.5347   5.0725   5.1041
     6.3976   6.4708

     occupation numbers 
     1.0000   1.0000   1.0000   1.0000   1.0000   1.0000   1.0000   1.0000
     1.0000   1.0000   1.0000   1.0000   1.0000   1.0000   1.0000   1.0000
     1.0000   1.0000   1.0000   1.0000   1.0000   1.0000   0.0000   0.0000
     0.0000   0.0000

          k = 0.2222 0.0000 0.0000 (266799 PWs)   bands (ev):

   -30.1537 -30.0595 -29.0709 -29.0162 -15.3036 -14.1096 -11.5039 -11.0013
   -10.9627 -10.6972 -10.2151 -10.0493  -9.8932  -8.2898  -7.7969  -6.9238
    -6.8681  -6.6505  -4.0308  -2.6637  -2.5746  -1.0451   4.1036   5.5680
     5.7372   5.8271

     occupation numbers 
     1.0000   1.0000   1.0000   1.0000   1.0000   1.0000   1.0000   1.0000
     1.0000   1.0000   1.0000   1.0000   1.0000   1.0000   1.0000   1.0000
     1.0000   1.0000   1.0000   1.0000   1.0000   1.0000   0.0000   0.0000
     0.0000   0.0000

          k = 0.2222 0.0699 0.0000 (266786 PWs)   bands (ev):

   -30.1350 -30.0439 -29.0911 -29.0370 -15.2573 -14.1190 -11.5898 -11.1600
   -10.8742 -10.6956 -10.1452  -9.9787  -9.8787  -8.2311  -7.9463  -7.0316
    -6.7716  -6.6082  -3.9887  -2.7117  -2.4999  -1.0878   4.2167   5.6558
     5.7617   5.9089

     occupation numbers 
     1.0000   1.0000   1.0000   1.0000   1.0000   1.0000   1.0000   1.0000
     1.0000   1.0000   1.0000   1.0000   1.0000   1.0000   1.0000   1.0000
     1.0000   1.0000   1.0000   1.0000   1.0000   1.0000   0.0000   0.0000
     0.0000   0.0000

          k = 0.2222 0.1398 0.0000 (266812 PWs)   bands (ev):

   -30.0833 -30.0023 -29.1447 -29.0939 -15.1236 -14.1589 -11.7755 -11.3821
   -10.8253 -10.6747 -10.0133  -9.8952  -9.7417  -8.2895  -8.0462  -7.1068
    -6.7432  -6.5776  -3.8661  -2.8372  -2.3018  -1.2051   4.5349   5.7317
     6.0134   6.1546

     occupation numbers 
     1.0000   1.0000   1.0000   1.0000   1.0000   1.0000   1.0000   1.0000
     1.0000   1.0000   1.0000   1.0000   1.0000   1.0000   1.0000   1.0000
     1.0000   1.0000   1.0000   1.0000   1.0000   1.0000   0.0000   0.0000
     0.0000   0.0000

          k = 0.2222 0.2097 0.0000 (266822 PWs)   bands (ev):

   -30.0122 -29.9521 -29.2098 -29.1693 -14.9192 -14.2585 -11.9269 -11.6240
   -10.7692 -10.6437  -9.9253  -9.8991  -9.4661  -8.6268  -7.7911  -7.0965
    -6.8545  -6.6452  -3.6765  -3.0096  -2.0439  -1.3713   4.9773   5.7273
     6.5274   6.5742

     occupation numbers 
     1.0000   1.0000   1.0000   1.0000   1.0000   1.0000   1.0000   1.0000
     1.0000   1.0000   1.0000   1.0000   1.0000   1.0000   1.0000   1.0000
     1.0000   1.0000   1.0000   1.0000   1.0000   1.0000   0.0000   0.0000
     0.0000   0.0000

          k = 0.2222 0.2797 0.0000 (266783 PWs)   bands (ev):

   -29.9481 -29.9248 -29.2498 -29.2333 -14.6749 -14.4377 -11.9510 -11.8348
   -10.6927 -10.6409  -9.9116  -9.9096  -9.1842  -8.9168  -7.4710  -7.1567
    -6.9412  -6.7926  -3.4476  -3.2162  -1.7892  -1.5659   5.3884   5.6360
     7.1958   7.2422

     occupation numbers 
     1.0000   1.0000   1.0000   1.0000   1.0000   1.0000   1.0000   1.0000
     1.0000   1.0000   1.0000   1.0000   1.0000   1.0000   1.0000   1.0000
     1.0000   1.0000   1.0000   1.0000   1.0000   1.0000   0.0000   0.0000
     0.0000   0.0000

          k = 0.3333 0.0000 0.0000 (266692 PWs)   bands (ev):

   -29.8670 -29.7860 -29.1460 -29.0921 -14.7317 -13.6167 -12.2158 -11.5748
   -11.0059 -10.4761 -10.4345 -10.3724 -10.2572  -8.2484  -8.1839  -7.2109
    -6.9070  -6.3272  -5.2281  -3.8668  -2.3135  -1.1732   4.7147   5.9345
     6.7753   7.0225

     occupation numbers 
     1.0000   1.0000   1.0000   1.0000   1.0000   1.0000   1.0000   1.0000
     1.0000   1.0000   1.0000   1.0000   1.0000   1.0000   1.0000   1.0000
     1.0000   1.0000   1.0000   1.0000   1.0000   1.0000   0.0000   0.0000
     0.0000   0.0000

          k = 0.3333 0.0699 0.0000 (266736 PWs)   bands (ev):

   -29.8536 -29.7751 -29.1582 -29.1053 -14.7002 -13.6631 -12.2495 -11.7194
   -10.9970 -10.5863 -10.3355 -10.3329 -10.0951  -8.3418  -8.0839  -7.2144
    -6.8511  -6.3381  -5.1998  -3.9441  -2.2462  -1.2145   4.7679   5.9425
     6.8846   7.0993

     occupation numbers 
     1.0000   1.0000   1.0000   1.0000   1.0000   1.0000   1.0000   1.0000
     1.0000   1.0000   1.0000   1.0000   1.0000   1.0000   1.0000   1.0000
     1.0000   1.0000   1.0000   1.0000   1.0000   1.0000   0.0000   0.0000
     0.0000   0.0000

          k = 0.3333 0.1398 0.0000 (266720 PWs)   bands (ev):

   -29.8162 -29.7465 -29.1904 -29.1414 -14.6089 -13.7809 -12.3464 -12.0010
   -10.9510 -10.7149 -10.2741 -10.2475  -9.7378  -8.4712  -7.9110  -7.1801
    -6.7672  -6.3795  -5.1142  -4.1409  -2.0822  -1.3238   4.9276   5.9450
     7.2068   7.3213

     occupation numbers 
     1.0000   1.0000   1.0000   1.0000   1.0000   1.0000   1.0000   1.0000
     1.0000   1.0000   1.0000   1.0000   1.0000   1.0000   1.0000   1.0000
     1.0000   1.0000   1.0000   1.0000   1.0000   1.0000   0.0000   0.0000
     0.0000   0.0000

          k = 0.3333 0.2097 0.0000 (266709 PWs)   bands (ev):

   -29.7648 -29.7130 -29.2288 -29.1905 -14.4678 -13.9355 -12.4585 -12.2644
   -10.8807 -10.7939 -10.2486 -10.2242  -9.3524  -8.6137  -7.6573  -7.0861
    -6.7691  -6.4733  -4.9750  -4.3790  -1.8972  -1.4645   5.1811   5.8911
     7.6558   7.7231

     occupation numbers 
     1.0000   1.0000   1.0000   1.0000   1.0000   1.0000   1.0000   1.0000
     1.0000   1.0000   1.0000   1.0000   1.0000   1.0000   1.0000   1.0000
     1.0000   1.0000   1.0000   1.0000   1.0000   1.0000   0.0000   0.0000
     0.0000   0.0000

          k = 0.3333 0.2797 0.0000 (266738 PWs)   bands (ev):

   -29.7174 -29.6973 -29.2498 -29.2344 -14.2940 -14.1102 -12.5075 -12.4437
   -10.8339 -10.8201 -10.2477 -10.2358  -9.0279  -8.7879  -7.3442  -7.0811
    -6.7812  -6.6259  -4.7982  -4.6002  -1.7391  -1.6031   5.4779   5.7353
     8.0132   8.1974

     occupation numbers 
     1.0000   1.0000   1.0000   1.0000   1.0000   1.0000   1.0000   1.0000
     1.0000   1.0000   1.0000   1.0000   1.0000   1.0000   1.0000   1.0000
     1.0000   1.0000   1.0000   1.0000   1.0000   1.0000   0.0000   0.0000
     0.0000   0.0000

          k = 0.4444 0.0000 0.0000 (266816 PWs)   bands (ev):

   -29.5630 -29.4954 -29.3092 -29.2514 -14.0115 -13.1695 -13.0220 -12.3454
   -10.9402 -10.7487 -10.5384 -10.5220  -9.5940  -8.8204  -8.0187  -7.6395
    -6.6642  -6.1346  -5.7230  -4.8994  -1.9237  -1.5048   5.2091   5.6502
     7.9081   8.8909

     occupation numbers 
     1.0000   1.0000   1.0000   1.0000   1.0000   1.0000   1.0000   1.0000
     1.0000   1.0000   1.0000   1.0000   1.0000   1.0000   1.0000   1.0000
     1.0000   1.0000   1.0000   1.0000   1.0000   1.0000   0.0000   0.0000
     0.0000   0.0000

          k = 0.4444 0.0699 0.0000 (266742 PWs)   bands (ev):

   -29.5570 -29.4915 -29.3118 -29.2555 -14.0032 -13.2384 -13.0468 -12.4583
   -10.8948 -10.6871 -10.5762 -10.5223  -9.5012  -8.8200  -7.9177  -7.5709
    -6.6378  -6.1117  -5.7908  -4.9890  -1.8875  -1.5124   5.2347   5.6658
     7.9346   8.5397

     occupation numbers 
     1.0000   1.0000   1.0000   1.0000   1.0000   1.0000   1.0000   1.0000
     1.0000   1.0000   1.0000   1.0000   1.0000   1.0000   1.0000   1.0000
     1.0000   1.0000   1.0000   1.0000   1.0000   1.0000   0.0000   0.0000
     0.0000   0.0000

          k = 0.4444 0.1398 0.0000 (266751 PWs)   bands (ev):

   -29.5403 -29.4821 -29.3182 -29.2674 -13.9768 -13.3972 -13.1131 -12.7039
   -10.7987 -10.6803 -10.5471 -10.5264  -9.2756  -8.7858  -7.6862  -7.3975
    -6.5723  -6.0478  -5.9551  -5.2150  -1.8109  -1.5436   5.3080   5.6949
     7.9826   8.2791

     occupation numbers 
     1.0000   1.0000   1.0000   1.0000   1.0000   1.0000   1.0000   1.0000
     1.0000   1.0000   1.0000   1.0000   1.0000   1.0000   1.0000   1.0000
     1.0000   1.0000   1.0000   1.0000   1.0000   1.0000   0.0000   0.0000
     0.0000   0.0000

          k = 0.4444 0.2097 0.0000 (266725 PWs)   bands (ev):

   -29.5169 -29.4740 -29.3231 -29.2851 -13.9269 -13.5742 -13.1807 -12.9493
   -10.7284 -10.7237 -10.5270 -10.4810  -9.0164  -8.7244  -7.4270  -7.2023
    -6.5055  -6.1560  -5.9418  -5.4770  -1.7456  -1.6003   5.4150   5.6946
     8.0042   8.0919

     occupation numbers 
     1.0000   1.0000   1.0000   1.0000   1.0000   1.0000   1.0000   1.0000
     1.0000   1.0000   1.0000   1.0000   1.0000   1.0000   1.0000   1.0000
     1.0000   1.0000   1.0000   1.0000   1.0000   1.0000   0.0000   0.0000
     0.0000   0.0000

          k = 0.4444 0.2797 0.0000 (266745 PWs)   bands (ev):

   -29.4928 -29.4765 -29.3192 -29.3046 -13.8461 -13.7284 -13.1965 -13.1222
   -10.7334 -10.7140 -10.5001 -10.4715  -8.8116  -8.7133  -7.2055  -7.1071
    -6.4466  -6.3295  -5.8239  -5.6825  -1.7035  -1.6597   5.5326   5.6359
     8.0006   8.0109

     occupation numbers 
     1.0000   1.0000   1.0000   1.0000   1.0000   1.0000   1.0000   1.0000
     1.0000   1.0000   1.0000   1.0000   1.0000   1.0000   1.0000   1.0000
     1.0000   1.0000   1.0000   1.0000   1.0000   1.0000   0.0000   0.0000
     0.0000   0.0000

     the Fermi energy is    -0.8627 ev

!    total energy              =    -239.79273341 Ry
     estimated scf accuracy    <       0.00000018 Ry
     smearing contrib. (-TS)   =       0.00000000 Ry
     internal energy E=F+TS    =    -239.79273341 Ry

     The total energy is F=E-TS. E is the sum of the following terms:
     one-electron contribution =   -1286.63366835 Ry
     hartree contribution      =     657.42567398 Ry
     xc contribution           =     -52.53833041 Ry
     ewald contribution        =     441.95359138 Ry

     convergence has been achieved in   6 iterations

     negative rho (up, down):  3.391E-06 0.000E+00

     Forces acting on atoms (cartesian axes, Ry/au):

     atom    1 type  1   force =     0.00000000    0.18799894   -0.56515516
     atom    2 type  1   force =     0.00000000    0.18799894    0.56515516
     atom    3 type  1   force =     0.00000000   -0.18799894   -0.56515516
     atom    4 type  1   force =     0.00000000   -0.18799894    0.56515516
     atom    5 type  2   force =     0.00000000    0.29922026   -0.50851700
     atom    6 type  2   force =     0.00000000    0.29922026    0.50851700
     atom    7 type  2   force =     0.00000000   -0.29922026   -0.50851700
     atom    8 type  2   force =     0.00000000   -0.29922026    0.50851700
     The non-local contrib.  to forces
     atom    1 type  1   force =     0.00000000   -0.25121824    0.28736809
     atom    2 type  1   force =     0.00000000   -0.25121824   -0.28736809
     atom    3 type  1   force =     0.00000000    0.25121824    0.28736809
     atom    4 type  1   force =     0.00000000    0.25121824   -0.28736809
     atom    5 type  2   force =     0.00000000   -1.68989088    2.61297020
     atom    6 type  2   force =     0.00000000   -1.68989088   -2.61297020
     atom    7 type  2   force =     0.00000000    1.68989088    2.61297020
     atom    8 type  2   force =     0.00000000    1.68989088   -2.61297020
     The ionic contribution  to forces
     atom    1 type  1   force =    -0.00000000    1.81792579    1.47847004
     atom    2 type  1   force =     0.00000000    1.81792579   -1.47847004
     atom    3 type  1   force =    -0.00000000   -1.81792579    1.47847004
     atom    4 type  1   force =    -0.00000000   -1.81792579   -1.47847004
     atom    5 type  2   force =    -0.00000000    7.12216367  -46.12062772
     atom    6 type  2   force =     0.00000000    7.12216367   46.12062772
     atom    7 type  2   force =    -0.00000000   -7.12216367  -46.12062772
     atom    8 type  2   force =     0.00000000   -7.12216367   46.12062772
     The local contribution  to forces
     atom    1 type  1   force =    -0.00000000   -1.37894336   -2.33416449
     atom    2 type  1   force =    -0.00000000   -1.37894336    2.33416449
     atom    3 type  1   force =     0.00000000    1.37894336   -2.33416449
     atom    4 type  1   force =     0.00000000    1.37894336    2.33416449
     atom    5 type  2   force =     0.00000000   -5.13342931   42.99826826
     atom    6 type  2   force =     0.00000000   -5.13342931  -42.99826826
     atom    7 type  2   force =     0.00000000    5.13342931   42.99826826
     atom    8 type  2   force =     0.00000000    5.13342931  -42.99826826
     The core correction contribution to forces
     atom    1 type  1   force =     0.00000000    0.00040356    0.00323977
     atom    2 type  1   force =     0.00000000    0.00040356   -0.00323977
     atom    3 type  1   force =    -0.00000000   -0.00040356    0.00323977
     atom    4 type  1   force =     0.00000000   -0.00040356   -0.00323977
     atom    5 type  2   force =     0.00000000    0.00000000    0.00000000
     atom    6 type  2   force =     0.00000000    0.00000000    0.00000000
     atom    7 type  2   force =     0.00000000    0.00000000    0.00000000
     atom    8 type  2   force =     0.00000000    0.00000000    0.00000000
     The Hubbard contrib.    to forces
     atom    1 type  1   force =     0.00000000    0.00000000    0.00000000
     atom    2 type  1   force =     0.00000000    0.00000000    0.00000000
     atom    3 type  1   force =     0.00000000    0.00000000    0.00000000
     atom    4 type  1   force =     0.00000000    0.00000000    0.00000000
     atom    5 type  2   force =     0.00000000    0.00000000    0.00000000
     atom    6 type  2   force =     0.00000000    0.00000000    0.00000000
     atom    7 type  2   force =     0.00000000    0.00000000    0.00000000
     atom    8 type  2   force =     0.00000000    0.00000000    0.00000000
     The SCF correction term to forces
     atom    1 type  1   force =    -0.00000000   -0.00016881   -0.00006856
     atom    2 type  1   force =    -0.00000000   -0.00016881    0.00006856
     atom    3 type  1   force =    -0.00000000    0.00016881   -0.00006856
     atom    4 type  1   force =    -0.00000000    0.00016881    0.00006856
     atom    5 type  2   force =     0.00000000    0.00037679    0.00087227
     atom    6 type  2   force =    -0.00000000    0.00037679   -0.00087227
     atom    7 type  2   force =     0.00000000   -0.00037679    0.00087227
     atom    8 type  2   force =    -0.00000000   -0.00037679   -0.00087227

     Total force =     1.676742     Total SCF correction =     0.001935


     Computing stress (Cartesian axis) and pressure


     negative rho (up, down):  3.391E-06 0.000E+00
          total   stress  (Ry/bohr**3)                   (kbar)     P=      234.73
   0.00014275   0.00000000   0.00000000           21.00        0.00        0.00
   0.00000000   0.00138348   0.00000000            0.00      203.52        0.00
   0.00000000   0.00000000   0.00326077            0.00        0.00      479.68

     kinetic stress (kbar)   9361.13      0.00      0.00
                                0.00   9140.73      0.00
                                0.00      0.00   8776.96

     local   stress (kbar)-165877.76      0.00      0.00
                                0.00-167173.36     -0.00
                                0.00     -0.00 159549.67

     nonloc. stress (kbar)   1214.58      0.00      0.00
                                0.00   1108.71      0.00
                                0.00      0.00    947.65

     hartree stress (kbar)  83350.88      0.00     -0.00
                                0.00  83608.30      0.00
                               -0.00      0.00 -76986.48

     exc-cor stress (kbar)  -2197.62     -0.00     -0.00
                               -0.00  -2192.80      0.00
                               -0.00      0.00  -2184.48

     corecor stress (kbar)    -75.36      0.00     -0.00
                                0.00    -75.16      0.00
                               -0.00      0.00    -75.44

     ewald   stress (kbar)  74245.15      0.00      0.00
                                0.00  75787.10      0.00
                                0.00      0.00 -89548.21

     hubbard stress (kbar)      0.00      0.00      0.00
                                0.00      0.00      0.00
                                0.00      0.00      0.00

     DFT-D   stress (kbar)      0.00      0.00      0.00
                                0.00      0.00      0.00
                                0.00      0.00      0.00

     XDM     stress (kbar)      0.00      0.00      0.00
                                0.00      0.00      0.00
                                0.00      0.00      0.00

     dft-nl  stress (kbar)      0.00      0.00      0.00
                                0.00      0.00      0.00
                                0.00      0.00      0.00

     TS-vdW  stress (kbar)      0.00      0.00      0.00
                                0.00      0.00      0.00
                                0.00      0.00      0.00

     MDB     stress (kbar)      0.00      0.00      0.00
                                0.00      0.00      0.00
                                0.00      0.00      0.00

     3D-RISM stress (kbar)      0.00      0.00      0.00
                                0.00      0.00      0.00
                                0.00      0.00      0.00


     BFGS Geometry Optimization
     Energy error            =      0.0E+00 Ry
     Gradient error          =      5.7E-01 Ry/Bohr
     Cell gradient error     =      2.0E+02 kbar

     number of scf cycles    =   1
     number of bfgs steps    =   0

     enthalpy           new  =    -239.7927334074 Ry

     new trust radius        =       0.5000000000 bohr
     new conv_thr            =       0.0000010000 Ry

     new unit-cell volume =   1109.41207 a.u.^3 (   164.39791 Ang^3 )
     density =      1.25286 g/cm^3

CELL_PARAMETERS (angstrom)
   2.630491800   0.000000000   0.000000000
   0.000000000   4.288893175   0.000000000
   0.000000000   0.000000000  14.571830239

ATOMIC_POSITIONS (crystal)
C             0.5000000000        0.1665379830        0.0327707160
C             0.0000000000        0.6665379830       -0.0327707160
C             0.0000000000        0.3334620170        0.0327707160
C             0.5000000000        0.8334620170       -0.0327707160
F             0.5000000000        0.0318925766       -0.1335826167
F             0.0000000000        0.5318925766        0.1335826167
F             0.0000000000        0.4681074234       -0.1335826167
F             0.5000000000       -0.0318925766        0.1335826167



     Writing config-only to output data dir ../tmp/fgz.save/
     NEW-OLD atomic charge density approx. for the potential

     negative rho (up, down):  2.936E-03 0.000E+00
     extrapolated charge   45.36921, renormalised to   44.00000

     total cpu time spent up to now is     2857.3 secs

     Self-consistent Calculation

     iteration #  1     ecut=   600.00 Ry     beta= 0.70
     Davidson diagonalization with overlap

---- Real-time Memory Report at c_bands before calling an iterative solver
           182 MiB given to the printing process from OS
             0 MiB allocation reported by mallinfo(arena+hblkhd)
        343417 MiB available memory on the node where the printing process lives
------------------
     c_bands:  1 eigenvalues not converged
     c_bands:  1 eigenvalues not converged
     c_bands:  4 eigenvalues not converged
     c_bands:  3 eigenvalues not converged
     c_bands:  2 eigenvalues not converged
     c_bands:  2 eigenvalues not converged
     ethr =  1.00E-06,  avg # of iterations = 27.0

     total cpu time spent up to now is     5169.6 secs

     total energy              =     -65.38295166 Ry
     estimated scf accuracy    <     184.53015918 Ry

     iteration #  2     ecut=   600.00 Ry     beta= 0.70
     Davidson diagonalization with overlap

---- Real-time Memory Report at c_bands before calling an iterative solver
           182 MiB given to the printing process from OS
             0 MiB allocation reported by mallinfo(arena+hblkhd)
        343389 MiB available memory on the node where the printing process lives
------------------
     c_bands:  1 eigenvalues not converged
     c_bands:  1 eigenvalues not converged
     c_bands:  1 eigenvalues not converged
     c_bands:  1 eigenvalues not converged
     c_bands:  2 eigenvalues not converged
     c_bands:  1 eigenvalues not converged
     c_bands:  1 eigenvalues not converged
     c_bands:  2 eigenvalues not converged
     c_bands:  3 eigenvalues not converged
     c_bands:  1 eigenvalues not converged
     c_bands:  2 eigenvalues not converged
     c_bands:  2 eigenvalues not converged
     c_bands:  3 eigenvalues not converged
     c_bands:  1 eigenvalues not converged
     c_bands:  1 eigenvalues not converged
     c_bands:  2 eigenvalues not converged
     ethr =  1.00E-02,  avg # of iterations = 19.5

     total cpu time spent up to now is     6851.5 secs

     total energy              =    -207.57353257 Ry
     estimated scf accuracy    <     375.04165073 Ry

     iteration #  3     ecut=   600.00 Ry     beta= 0.70
     Davidson diagonalization with overlap

---- Real-time Memory Report at c_bands before calling an iterative solver
           182 MiB given to the printing process from OS
             0 MiB allocation reported by mallinfo(arena+hblkhd)
        343408 MiB available memory on the node where the printing process lives
------------------
     ethr =  1.00E-02,  avg # of iterations =  8.7

     total cpu time spent up to now is     7665.7 secs

     WARNING: integrated charge=    44.00000883, expected=    44.00000000

     total energy              =    -258.96541585 Ry
     estimated scf accuracy    <      91.20665177 Ry

     iteration #  4     ecut=   600.00 Ry     beta= 0.70
     Davidson diagonalization with overlap

---- Real-time Memory Report at c_bands before calling an iterative solver
           182 MiB given to the printing process from OS
             0 MiB allocation reported by mallinfo(arena+hblkhd)
        343403 MiB available memory on the node where the printing process lives
------------------
     ethr =  1.00E-02,  avg # of iterations =  3.0

     total cpu time spent up to now is     7987.7 secs

     total energy              =    -252.19096397 Ry
     estimated scf accuracy    <      29.98935011 Ry

     iteration #  5     ecut=   600.00 Ry     beta= 0.70
     Davidson diagonalization with overlap

---- Real-time Memory Report at c_bands before calling an iterative solver
           182 MiB given to the printing process from OS
             0 MiB allocation reported by mallinfo(arena+hblkhd)
        343408 MiB available memory on the node where the printing process lives
------------------
     ethr =  1.00E-02,  avg # of iterations =  2.4

     total cpu time spent up to now is     8271.2 secs

     total energy              =    -251.48226179 Ry
     estimated scf accuracy    <      16.83052349 Ry

     iteration #  6     ecut=   600.00 Ry     beta= 0.70
     Davidson diagonalization with overlap

---- Real-time Memory Report at c_bands before calling an iterative solver
           182 MiB given to the printing process from OS
             0 MiB allocation reported by mallinfo(arena+hblkhd)
        343399 MiB available memory on the node where the printing process lives
------------------
     ethr =  1.00E-02,  avg # of iterations =  1.0

     total cpu time spent up to now is     8457.2 secs

     total energy              =    -244.17162054 Ry
     estimated scf accuracy    <      14.06635378 Ry

     iteration #  7     ecut=   600.00 Ry     beta= 0.70
     Davidson diagonalization with overlap

---- Real-time Memory Report at c_bands before calling an iterative solver
           182 MiB given to the printing process from OS
             0 MiB allocation reported by mallinfo(arena+hblkhd)
        343369 MiB available memory on the node where the printing process lives
------------------
     ethr =  1.00E-02,  avg # of iterations =  1.0

     total cpu time spent up to now is     8644.3 secs

     WARNING: integrated charge=    44.00001466, expected=    44.00000000

     total energy              =    -242.69930380 Ry
     estimated scf accuracy    <       5.44539500 Ry

     iteration #  8     ecut=   600.00 Ry     beta= 0.70
     Davidson diagonalization with overlap

---- Real-time Memory Report at c_bands before calling an iterative solver
           182 MiB given to the printing process from OS
             0 MiB allocation reported by mallinfo(arena+hblkhd)
        343314 MiB available memory on the node where the printing process lives
------------------
     ethr =  1.00E-02,  avg # of iterations =  1.0

     total cpu time spent up to now is     8823.7 secs

     total energy              =    -241.19899672 Ry
     estimated scf accuracy    <       3.52459001 Ry

     iteration #  9     ecut=   600.00 Ry     beta= 0.70
     Davidson diagonalization with overlap

---- Real-time Memory Report at c_bands before calling an iterative solver
           182 MiB given to the printing process from OS
             0 MiB allocation reported by mallinfo(arena+hblkhd)
        343263 MiB available memory on the node where the printing process lives
------------------
     ethr =  8.01E-03,  avg # of iterations =  1.0

     total cpu time spent up to now is     9013.2 secs

     total energy              =    -240.07547768 Ry
     estimated scf accuracy    <       1.73564526 Ry

     iteration # 10     ecut=   600.00 Ry     beta= 0.70
     Davidson diagonalization with overlap

---- Real-time Memory Report at c_bands before calling an iterative solver
           182 MiB given to the printing process from OS
             0 MiB allocation reported by mallinfo(arena+hblkhd)
        343208 MiB available memory on the node where the printing process lives
------------------
     ethr =  3.94E-03,  avg # of iterations =  1.1

     total cpu time spent up to now is     9201.9 secs

     WARNING: integrated charge=    43.99998918, expected=    44.00000000

     total energy              =    -239.87966745 Ry
     estimated scf accuracy    <       0.30552621 Ry

     iteration # 11     ecut=   600.00 Ry     beta= 0.70
     Davidson diagonalization with overlap

---- Real-time Memory Report at c_bands before calling an iterative solver
           182 MiB given to the printing process from OS
             0 MiB allocation reported by mallinfo(arena+hblkhd)
        343181 MiB available memory on the node where the printing process lives
------------------
     ethr =  6.94E-04,  avg # of iterations =  2.6

     negative rho (up, down):  1.654E-03 0.000E+00

     total cpu time spent up to now is     9501.4 secs

     WARNING: integrated charge=    43.99999124, expected=    44.00000000

     total energy              =    -239.92666037 Ry
     estimated scf accuracy    <       0.01694403 Ry

     iteration # 12     ecut=   600.00 Ry     beta= 0.70
     Davidson diagonalization with overlap

---- Real-time Memory Report at c_bands before calling an iterative solver
           182 MiB given to the printing process from OS
             0 MiB allocation reported by mallinfo(arena+hblkhd)
        343176 MiB available memory on the node where the printing process lives
------------------
     ethr =  3.85E-05,  avg # of iterations =  4.9

     total cpu time spent up to now is     9959.8 secs

     WARNING: integrated charge=    43.99999305, expected=    44.00000000

     total energy              =    -239.91919169 Ry
     estimated scf accuracy    <       0.04181091 Ry

     iteration # 13     ecut=   600.00 Ry     beta= 0.70
     Davidson diagonalization with overlap

---- Real-time Memory Report at c_bands before calling an iterative solver
           182 MiB given to the printing process from OS
             0 MiB allocation reported by mallinfo(arena+hblkhd)
        343171 MiB available memory on the node where the printing process lives
------------------
     ethr =  3.85E-05,  avg # of iterations =  2.0

     total cpu time spent up to now is    10212.7 secs

     total energy              =    -239.91655765 Ry
     estimated scf accuracy    <       0.01702138 Ry

     iteration # 14     ecut=   600.00 Ry     beta= 0.70
     Davidson diagonalization with overlap

---- Real-time Memory Report at c_bands before calling an iterative solver
           182 MiB given to the printing process from OS
             0 MiB allocation reported by mallinfo(arena+hblkhd)
        343166 MiB available memory on the node where the printing process lives
------------------
     ethr =  3.85E-05,  avg # of iterations =  2.0

     total cpu time spent up to now is    10493.3 secs

     total energy              =    -239.92256923 Ry
     estimated scf accuracy    <       0.05144994 Ry

     iteration # 15     ecut=   600.00 Ry     beta= 0.70
     Davidson diagonalization with overlap

---- Real-time Memory Report at c_bands before calling an iterative solver
           182 MiB given to the printing process from OS
             0 MiB allocation reported by mallinfo(arena+hblkhd)
        343159 MiB available memory on the node where the printing process lives
------------------
     ethr =  3.85E-05,  avg # of iterations =  1.0

     total cpu time spent up to now is    10672.5 secs

     total energy              =    -239.91174708 Ry
     estimated scf accuracy    <       0.02459902 Ry

     iteration # 16     ecut=   600.00 Ry     beta= 0.70
     Davidson diagonalization with overlap

---- Real-time Memory Report at c_bands before calling an iterative solver
           182 MiB given to the printing process from OS
             0 MiB allocation reported by mallinfo(arena+hblkhd)
        343146 MiB available memory on the node where the printing process lives
------------------
     ethr =  3.85E-05,  avg # of iterations =  2.0

     total cpu time spent up to now is    10928.2 secs

     total energy              =    -239.91447627 Ry
     estimated scf accuracy    <       0.00096564 Ry

     iteration # 17     ecut=   600.00 Ry     beta= 0.70
     Davidson diagonalization with overlap

---- Real-time Memory Report at c_bands before calling an iterative solver
           182 MiB given to the printing process from OS
             0 MiB allocation reported by mallinfo(arena+hblkhd)
        343135 MiB available memory on the node where the printing process lives
------------------
     ethr =  2.19E-06,  avg # of iterations =  1.4

     negative rho (up, down):  2.697E-05 0.000E+00

     total cpu time spent up to now is    11128.7 secs

     total energy              =    -239.91393716 Ry
     estimated scf accuracy    <       0.00101350 Ry

     iteration # 18     ecut=   600.00 Ry     beta= 0.70
     Davidson diagonalization with overlap

---- Real-time Memory Report at c_bands before calling an iterative solver
           182 MiB given to the printing process from OS
             0 MiB allocation reported by mallinfo(arena+hblkhd)
        343132 MiB available memory on the node where the printing process lives
------------------
     ethr =  2.19E-06,  avg # of iterations =  2.0

     negative rho (up, down):  2.019E-06 0.000E+00

     total cpu time spent up to now is    11384.3 secs

     total energy              =    -239.91413818 Ry
     estimated scf accuracy    <       0.00002252 Ry

     iteration # 19     ecut=   600.00 Ry     beta= 0.70
     Davidson diagonalization with overlap

---- Real-time Memory Report at c_bands before calling an iterative solver
           182 MiB given to the printing process from OS
             0 MiB allocation reported by mallinfo(arena+hblkhd)
        343121 MiB available memory on the node where the printing process lives
------------------
     ethr =  5.12E-08,  avg # of iterations =  3.4

     negative rho (up, down):  2.654E-06 0.000E+00

     total cpu time spent up to now is    11732.2 secs

     total energy              =    -239.91414421 Ry
     estimated scf accuracy    <       0.00000174 Ry

     iteration # 20     ecut=   600.00 Ry     beta= 0.70
     Davidson diagonalization with overlap

---- Real-time Memory Report at c_bands before calling an iterative solver
           182 MiB given to the printing process from OS
             0 MiB allocation reported by mallinfo(arena+hblkhd)
        343123 MiB available memory on the node where the printing process lives
------------------
     ethr =  3.96E-09,  avg # of iterations =  3.4

     negative rho (up, down):  4.514E-06 0.000E+00

     total cpu time spent up to now is    12114.4 secs

     End of self-consistent calculation

          k = 0.0000 0.0000 0.0000 (266941 PWs)   bands (ev):

   -26.1756 -25.8889 -24.7288 -24.6600 -20.9854 -18.0324 -13.8858 -10.4152
   -10.3381 -10.2010  -8.4717  -8.4151  -7.3488  -7.0549  -6.0769  -5.5549
    -4.9003  -4.8731  -4.3135  -4.2964  -4.2727  -4.2442  -3.1647  -0.2283
     0.1517   1.1738

     occupation numbers 
     1.0000   1.0000   1.0000   1.0000   1.0000   1.0000   1.0000   1.0000
     1.0000   1.0000   1.0000   1.0000   1.0000   1.0000   1.0000   1.0000
     1.0000   1.0000   1.0000   1.0000   1.0000   1.0000   0.0000   0.0000
     0.0000   0.0000

          k = 0.0000 0.0679 0.0000 (266903 PWs)   bands (ev):

   -26.1381 -25.8577 -24.7790 -24.7040 -20.9225 -18.1896 -13.7235 -10.4320
   -10.1851 -10.1545  -8.6031  -8.4761  -7.2784  -6.9978  -6.1929  -5.5421
    -4.9344  -4.8776  -4.3720  -4.3337  -4.2829  -4.2736  -2.9896  -0.4374
     0.2143   1.1694

     occupation numbers 
     1.0000   1.0000   1.0000   1.0000   1.0000   1.0000   1.0000   1.0000
     1.0000   1.0000   1.0000   1.0000   1.0000   1.0000   1.0000   1.0000
     1.0000   1.0000   1.0000   1.0000   1.0000   1.0000   0.0000   0.0000
     0.0000   0.0000

          k = 0.0000 0.1359 0.0000 (266743 PWs)   bands (ev):

   -26.0286 -25.7667 -24.9200 -24.8269 -20.7385 -18.5848 -13.3060 -10.5659
   -10.0184  -9.7599  -8.7764  -8.6500  -7.1811  -6.8619  -6.4704  -5.5653
    -4.9945  -4.8950  -4.6159  -4.4511  -4.2709  -4.2292  -2.6222  -0.8331
     0.2953   1.1419

     occupation numbers 
     1.0000   1.0000   1.0000   1.0000   1.0000   1.0000   1.0000   1.0000
     1.0000   1.0000   1.0000   1.0000   1.0000   1.0000   1.0000   1.0000
     1.0000   1.0000   1.0000   1.0000   1.0000   1.0000   0.0000   0.0000
     0.0000   0.0000

          k = 0.0000 0.2038 0.0000 (266714 PWs)   bands (ev):

   -25.8566 -25.6255 -25.1253 -25.0053 -20.4446 -19.0840 -12.7497 -10.9430
    -9.8029  -9.1703  -8.9102  -8.7277  -7.1901  -7.0225  -6.4510  -5.6825
    -5.0270  -4.9301  -4.8459  -4.6712  -4.2555  -4.1989  -2.2208  -1.2068
     0.4171   1.0527

     occupation numbers 
     1.0000   1.0000   1.0000   1.0000   1.0000   1.0000   1.0000   1.0000
     1.0000   1.0000   1.0000   1.0000   1.0000   1.0000   1.0000   1.0000
     1.0000   1.0000   1.0000   1.0000   1.0000   1.0000   0.0000   0.0000
     0.0000   0.0000

          k = 0.0000 0.2718 0.0000 (266840 PWs)   bands (ev):

   -25.6411 -25.4808 -25.3287 -25.2073 -20.0559 -19.5923 -12.1314 -11.5050
    -9.5265  -9.2166  -8.6413  -8.5427  -7.3465  -7.3426  -6.1451  -5.8682
    -5.0169  -4.9818  -4.9771  -4.9169  -4.2279  -4.2026  -1.8489  -1.5231
     0.6247   0.8687

     occupation numbers 
     1.0000   1.0000   1.0000   1.0000   1.0000   1.0000   1.0000   1.0000
     1.0000   1.0000   1.0000   1.0000   1.0000   1.0000   1.0000   1.0000
     1.0000   1.0000   1.0000   1.0000   1.0000   1.0000   0.0000   0.0000
     0.0000   0.0000

          k = 0.1108 0.0000 0.0000 (266853 PWs)   bands (ev):

   -26.0885 -25.8168 -24.7217 -24.6545 -20.8246 -17.8738 -13.7818 -10.9721
   -10.2578 -10.2087  -9.1469  -8.4279  -7.4596  -6.9717  -6.0952  -5.6810
    -5.2129  -5.1243  -4.6373  -4.4182  -4.2614  -4.2475  -2.9153  -0.1163
     0.1267   2.1531

     occupation numbers 
     1.0000   1.0000   1.0000   1.0000   1.0000   1.0000   1.0000   1.0000
     1.0000   1.0000   1.0000   1.0000   1.0000   1.0000   1.0000   1.0000
     1.0000   1.0000   1.0000   1.0000   1.0000   1.0000   0.0000   0.0000
     0.0000   0.0000

          k = 0.1108 0.0679 0.0000 (266849 PWs)   bands (ev):

   -26.0526 -25.7870 -24.7683 -24.6955 -20.7627 -18.0326 -13.6204 -10.9282
   -10.2861 -10.0595  -9.2436  -8.5259  -7.3791  -6.9219  -6.2196  -5.6618
    -5.2131  -5.1470  -4.6356  -4.4184  -4.3073  -4.2758  -2.7989  -0.3625
     0.2990   2.1166

     occupation numbers 
     1.0000   1.0000   1.0000   1.0000   1.0000   1.0000   1.0000   1.0000
     1.0000   1.0000   1.0000   1.0000   1.0000   1.0000   1.0000   1.0000
     1.0000   1.0000   1.0000   1.0000   1.0000   1.0000   0.0000   0.0000
     0.0000   0.0000

          k = 0.1108 0.1359 0.0000 (266782 PWs)   bands (ev):

   -25.9479 -25.7001 -24.8996 -24.8103 -20.5809 -18.4306 -13.2079 -10.7976
   -10.4516  -9.6454  -9.4837  -8.6228  -7.2768  -6.8219  -6.4938  -5.6535
    -5.2171  -5.2066  -4.6340  -4.4784  -4.3741  -4.3428  -2.5089  -0.7303
     0.4959   1.9876

     occupation numbers 
     1.0000   1.0000   1.0000   1.0000   1.0000   1.0000   1.0000   1.0000
     1.0000   1.0000   1.0000   1.0000   1.0000   1.0000   1.0000   1.0000
     1.0000   1.0000   1.0000   1.0000   1.0000   1.0000   0.0000   0.0000
     0.0000   0.0000

          k = 0.1108 0.2038 0.0000 (266799 PWs)   bands (ev):

   -25.7841 -25.5658 -25.0915 -24.9775 -20.2895 -18.9318 -12.6621 -10.8624
   -10.5890  -9.7494  -9.0681  -8.5516  -7.2924  -7.0607  -6.4312  -5.7175
    -5.2851  -5.2558  -4.6572  -4.6505  -4.3953  -4.3642  -2.1464  -1.0908
     0.7089   1.7337

     occupation numbers 
     1.0000   1.0000   1.0000   1.0000   1.0000   1.0000   1.0000   1.0000
     1.0000   1.0000   1.0000   1.0000   1.0000   1.0000   1.0000   1.0000
     1.0000   1.0000   1.0000   1.0000   1.0000   1.0000   0.0000   0.0000
     0.0000   0.0000

          k = 0.1108 0.2718 0.0000 (266782 PWs)   bands (ev):

   -25.5797 -25.4296 -25.2812 -25.1676 -19.9030 -19.4404 -12.0563 -11.4361
   -10.3230 -10.0313  -8.5276  -8.3875  -7.4411  -7.4083  -6.1505  -5.8835
    -5.3424  -5.3249  -4.7521  -4.7234  -4.3886  -4.3644  -1.7785  -1.4308
     1.0053   1.3761

     occupation numbers 
     1.0000   1.0000   1.0000   1.0000   1.0000   1.0000   1.0000   1.0000
     1.0000   1.0000   1.0000   1.0000   1.0000   1.0000   1.0000   1.0000
     1.0000   1.0000   1.0000   1.0000   1.0000   1.0000   0.0000   0.0000
     0.0000   0.0000

          k = 0.2216 0.0000 0.0000 (266799 PWs)   bands (ev):

   -25.8480 -25.6176 -24.7185 -24.6541 -20.3398 -17.3991 -13.7898 -12.3063
   -10.7298  -9.8482  -9.8161  -8.3886  -7.9254  -6.7673  -6.2539  -5.9052
    -5.8329  -5.6333  -5.3006  -4.6741  -4.3516  -4.3489  -2.4349  -0.5344
     0.6976   3.1746

     occupation numbers 
     1.0000   1.0000   1.0000   1.0000   1.0000   1.0000   1.0000   1.0000
     1.0000   1.0000   1.0000   1.0000   1.0000   1.0000   1.0000   1.0000
     1.0000   1.0000   1.0000   1.0000   1.0000   1.0000   0.0000   0.0000
     0.0000   0.0000

          k = 0.2216 0.0679 0.0000 (266786 PWs)   bands (ev):

   -25.8172 -25.5921 -24.7551 -24.6865 -20.2803 -17.5619 -13.6645 -12.2219
   -10.8454  -9.8848  -9.7260  -8.4599  -7.8025  -6.7670  -6.3976  -5.9026
    -5.7836  -5.6496  -5.1841  -4.7263  -4.3771  -4.3476  -2.3759  -0.5457
     0.7253   2.9860

     occupation numbers 
     1.0000   1.0000   1.0000   1.0000   1.0000   1.0000   1.0000   1.0000
     1.0000   1.0000   1.0000   1.0000   1.0000   1.0000   1.0000   1.0000
     1.0000   1.0000   1.0000   1.0000   1.0000   1.0000   0.0000   0.0000
     0.0000   0.0000

          k = 0.2216 0.1359 0.0000 (266812 PWs)   bands (ev):

   -25.7276 -25.5181 -24.8590 -24.7780 -20.1045 -17.9669 -13.3586 -11.9836
   -11.1571 -10.0991  -9.3816  -8.4704  -7.6597  -6.9152  -6.5426  -5.9079
    -5.6710  -5.6581  -4.9881  -4.8367  -4.4385  -4.3673  -2.1982  -0.6279
     0.8111   2.5491

     occupation numbers 
     1.0000   1.0000   1.0000   1.0000   1.0000   1.0000   1.0000   1.0000
     1.0000   1.0000   1.0000   1.0000   1.0000   1.0000   1.0000   1.0000
     1.0000   1.0000   1.0000   1.0000   1.0000   1.0000   0.0000   0.0000
     0.0000   0.0000

          k = 0.2216 0.2038 0.0000 (266822 PWs)   bands (ev):

   -25.5886 -25.4047 -25.0123 -24.9130 -19.8204 -18.4722 -12.9696 -11.6350
   -11.5891 -10.4261  -8.8908  -8.3480  -7.6502  -7.2846  -6.4599  -5.9784
    -5.6613  -5.5893  -4.8808  -4.8078  -4.5021  -4.4481  -1.9144  -0.8463
     0.9670   2.0454

     occupation numbers 
     1.0000   1.0000   1.0000   1.0000   1.0000   1.0000   1.0000   1.0000
     1.0000   1.0000   1.0000   1.0000   1.0000   1.0000   1.0000   1.0000
     1.0000   1.0000   1.0000   1.0000   1.0000   1.0000   0.0000   0.0000
     0.0000   0.0000

          k = 0.2216 0.2718 0.0000 (266783 PWs)   bands (ev):

   -25.4174 -25.2941 -25.1620 -25.0682 -19.4399 -18.9808 -12.5344 -12.0657
   -11.2305 -10.8155  -8.3972  -8.1925  -7.7626  -7.6375  -6.3081  -6.1327
    -5.6458  -5.6023  -4.7847  -4.6835  -4.5776  -4.5560  -1.5597  -1.1819
     1.2181   1.5827

     occupation numbers 
     1.0000   1.0000   1.0000   1.0000   1.0000   1.0000   1.0000   1.0000
     1.0000   1.0000   1.0000   1.0000   1.0000   1.0000   1.0000   1.0000
     1.0000   1.0000   1.0000   1.0000   1.0000   1.0000   0.0000   0.0000
     0.0000   0.0000

          k = 0.3323 0.0000 0.0000 (266692 PWs)   bands (ev):

   -25.5148 -25.3401 -24.7657 -24.6986 -19.5242 -16.6113 -15.1736 -12.4960
   -12.1606  -9.3720  -9.3450  -8.6037  -8.3946  -6.6782  -6.6633  -6.4405
    -6.0865  -6.0782  -5.6857  -4.9277  -4.6203  -4.5496  -1.8067  -0.5660
     0.9170   2.0903

     occupation numbers 
     1.0000   1.0000   1.0000   1.0000   1.0000   1.0000   1.0000   1.0000
     1.0000   1.0000   1.0000   1.0000   1.0000   1.0000   1.0000   1.0000
     1.0000   1.0000   1.0000   1.0000   1.0000   1.0000   0.0000   0.0000
     0.0000   0.0000

          k = 0.3323 0.0679 0.0000 (266736 PWs)   bands (ev):

   -25.4927 -25.3221 -24.7878 -24.7185 -19.4677 -16.7812 -15.1021 -12.6293
   -12.0168  -9.4893  -9.2707  -8.5276  -8.3362  -6.9848  -6.5498  -6.3805
    -6.1028  -6.0704  -5.5057  -4.9790  -4.5874  -4.5302  -1.7779  -0.5421
     0.9408   1.9512

     occupation numbers 
     1.0000   1.0000   1.0000   1.0000   1.0000   1.0000   1.0000   1.0000
     1.0000   1.0000   1.0000   1.0000   1.0000   1.0000   1.0000   1.0000
     1.0000   1.0000   1.0000   1.0000   1.0000   1.0000   0.0000   0.0000
     0.0000   0.0000

          k = 0.3323 0.1359 0.0000 (266720 PWs)   bands (ev):

   -25.4292 -25.2702 -24.8512 -24.7755 -19.3001 -17.1941 -14.9171 -12.9722
   -11.6609  -9.7550  -9.0599  -8.3507  -8.2542  -7.3501  -6.6050  -6.2948
    -6.1127  -5.9548  -5.2018  -5.0138  -4.5673  -4.4890  -1.6779  -0.5249
     0.9963   1.6406

     occupation numbers 
     1.0000   1.0000   1.0000   1.0000   1.0000   1.0000   1.0000   1.0000
     1.0000   1.0000   1.0000   1.0000   1.0000   1.0000   1.0000   1.0000
     1.0000   1.0000   1.0000   1.0000   1.0000   1.0000   0.0000   0.0000
     0.0000   0.0000

          k = 0.3323 0.2038 0.0000 (266709 PWs)   bands (ev):

   -25.3321 -25.1922 -24.9463 -24.8613 -19.0264 -17.7003 -14.6447 -13.4159
   -11.2288 -10.0738  -8.7605  -8.2757  -8.1285  -7.6727  -6.6584  -6.4283
    -5.9285  -5.8435  -4.9532  -4.9465  -4.5889  -4.4761  -1.4790  -0.6171
     1.0311   1.3286

     occupation numbers 
     1.0000   1.0000   1.0000   1.0000   1.0000   1.0000   1.0000   1.0000
     1.0000   1.0000   1.0000   1.0000   1.0000   1.0000   1.0000   1.0000
     1.0000   1.0000   1.0000   1.0000   1.0000   1.0000   0.0000   0.0000
     0.0000   0.0000

          k = 0.3323 0.2718 0.0000 (266738 PWs)   bands (ev):

   -25.2152 -25.1258 -25.0324 -24.9622 -18.6560 -18.2047 -14.2928 -13.8737
   -10.8070 -10.4226  -8.4724  -8.3117  -8.0187  -7.8985  -6.6578  -6.5809
    -5.7918  -5.7775  -4.8342  -4.8211  -4.5964  -4.5317  -1.1823  -0.8577
     1.0417   1.1204

     occupation numbers 
     1.0000   1.0000   1.0000   1.0000   1.0000   1.0000   1.0000   1.0000
     1.0000   1.0000   1.0000   1.0000   1.0000   1.0000   1.0000   1.0000
     1.0000   1.0000   1.0000   1.0000   1.0000   1.0000   0.0000   0.0000
     0.0000   0.0000

          k = 0.4431 0.0000 0.0000 (266816 PWs)   bands (ev):

   -25.1756 -25.0544 -24.9126 -24.8285 -18.3711 -16.8922 -15.5168 -14.1309
   -11.2755 -10.1918  -8.8508  -8.5244  -8.0870  -7.2962  -6.8618  -6.8249
    -6.3357  -6.2848  -5.4509  -5.0180  -4.9438  -4.7737  -0.9656  -0.0756
     0.1054   0.8552

     occupation numbers 
     1.0000   1.0000   1.0000   1.0000   1.0000   1.0000   1.0000   1.0000
     1.0000   1.0000   1.0000   1.0000   1.0000   1.0000   1.0000   1.0000
     1.0000   1.0000   1.0000   1.0000   1.0000   1.0000   0.0000   0.0000
     0.0000   0.0000

          k = 0.4431 0.0679 0.0000 (266742 PWs)   bands (ev):

   -25.1661 -25.0471 -24.9184 -24.8344 -18.3179 -16.8478 -15.6636 -14.2775
   -11.1373 -10.1047  -8.8446  -8.6157  -8.0814  -7.5216  -6.7031  -6.6776
    -6.3729  -6.3502  -5.3288  -5.0246  -4.8580  -4.7460  -0.9544  -0.1877
     0.2441   0.7964

     occupation numbers 
     1.0000   1.0000   1.0000   1.0000   1.0000   1.0000   1.0000   1.0000
     1.0000   1.0000   1.0000   1.0000   1.0000   1.0000   1.0000   1.0000
     1.0000   1.0000   1.0000   1.0000   1.0000   1.0000   0.0000   0.0000
     0.0000   0.0000

          k = 0.4431 0.1359 0.0000 (266751 PWs)   bands (ev):

   -25.1392 -25.0268 -24.9353 -24.8517 -18.1598 -16.7339 -16.0105 -14.6476
   -10.8109  -9.9452  -8.8345  -8.7743  -8.0638  -7.7977  -6.6920  -6.5929
    -6.3452  -6.2064  -5.0873  -4.9504  -4.7527  -4.6766  -0.9180  -0.3507
     0.5029   0.6964

     occupation numbers 
     1.0000   1.0000   1.0000   1.0000   1.0000   1.0000   1.0000   1.0000
     1.0000   1.0000   1.0000   1.0000   1.0000   1.0000   1.0000   1.0000
     1.0000   1.0000   1.0000   1.0000   1.0000   1.0000   0.0000   0.0000
     0.0000   0.0000

          k = 0.4431 0.2038 0.0000 (266725 PWs)   bands (ev):

   -25.0997 -25.0004 -24.9592 -24.8788 -17.9009 -16.7517 -16.2253 -15.1141
   -10.4557  -9.8889  -8.8680  -8.8443  -8.0108  -7.9350  -6.8208  -6.7550
    -6.0857  -5.9890  -4.8811  -4.8078  -4.7086  -4.6042  -0.8559  -0.5108
     0.6945   0.8047

     occupation numbers 
     1.0000   1.0000   1.0000   1.0000   1.0000   1.0000   1.0000   1.0000
     1.0000   1.0000   1.0000   1.0000   1.0000   1.0000   1.0000   1.0000
     1.0000   1.0000   1.0000   1.0000   1.0000   1.0000   0.0000   0.0000
     0.0000   0.0000

          k = 0.4431 0.2718 0.0000 (266745 PWs)   bands (ev):

   -25.0545 -25.0119 -24.9491 -24.9131 -17.5512 -17.1354 -15.9839 -15.5807
   -10.1712  -9.9788  -8.8912  -8.8753  -7.9493  -7.9434  -6.9023  -6.8833
    -5.9074  -5.8769  -4.7748  -4.7352  -4.6482  -4.5805  -0.7701  -0.6549
     0.8370   0.9557

     occupation numbers 
     1.0000   1.0000   1.0000   1.0000   1.0000   1.0000   1.0000   1.0000
     1.0000   1.0000   1.0000   1.0000   1.0000   1.0000   1.0000   1.0000
     1.0000   1.0000   1.0000   1.0000   1.0000   1.0000   0.0000   0.0000
     0.0000   0.0000

     the Fermi energy is    -4.0949 ev

!    total energy              =    -239.91414479 Ry
     estimated scf accuracy    <       0.00000003 Ry
     smearing contrib. (-TS)   =       0.00000000 Ry
     internal energy E=F+TS    =    -239.91414479 Ry

     The total energy is F=E-TS. E is the sum of the following terms:
     one-electron contribution =   -1116.21651288 Ry
     hartree contribution      =     571.70865347 Ry
     xc contribution           =     -50.82291515 Ry
     ewald contribution        =     355.41662977 Ry

     convergence has been achieved in  20 iterations

     negative rho (up, down):  4.514E-06 0.000E+00

     Forces acting on atoms (cartesian axes, Ry/au):

     atom    1 type  1   force =     0.00000000   -0.19955432    0.08680678
     atom    2 type  1   force =     0.00000000   -0.19955432   -0.08680678
     atom    3 type  1   force =    -0.00000000    0.19955432    0.08680678
     atom    4 type  1   force =    -0.00000000    0.19955432   -0.08680678
     atom    5 type  2   force =     0.00000000   -0.12273274    0.12777110
     atom    6 type  2   force =     0.00000000   -0.12273274   -0.12777110
     atom    7 type  2   force =     0.00000000    0.12273274    0.12777110
     atom    8 type  2   force =     0.00000000    0.12273274   -0.12777110
     The non-local contrib.  to forces
     atom    1 type  1   force =     0.00000000   -0.18238031    0.21104587
     atom    2 type  1   force =    -0.00000000   -0.18238031   -0.21104587
     atom    3 type  1   force =     0.00000000    0.18238031    0.21104587
     atom    4 type  1   force =     0.00000000    0.18238031   -0.21104587
     atom    5 type  2   force =    -0.00000000   -0.77175588    1.31264313
     atom    6 type  2   force =    -0.00000000   -0.77175588   -1.31264313
     atom    7 type  2   force =     0.00000000    0.77175588    1.31264313
     atom    8 type  2   force =     0.00000000    0.77175588   -1.31264313
     The ionic contribution  to forces
     atom    1 type  1   force =     0.00000000   -0.11172326    3.82582153
     atom    2 type  1   force =    -0.00000000   -0.11172326   -3.82582153
     atom    3 type  1   force =    -0.00000000    0.11172326    3.82582153
     atom    4 type  1   force =     0.00000000    0.11172326   -3.82582153
     atom    5 type  2   force =     0.00000000    0.18940825  -39.56158979
     atom    6 type  2   force =     0.00000000    0.18940825   39.56158979
     atom    7 type  2   force =    -0.00000000   -0.18940825  -39.56158979
     atom    8 type  2   force =    -0.00000000   -0.18940825   39.56158979
     The local contribution  to forces
     atom    1 type  1   force =    -0.00000000    0.09142612   -3.94731621
     atom    2 type  1   force =    -0.00000000    0.09142612    3.94731621
     atom    3 type  1   force =     0.00000000   -0.09142612   -3.94731621
     atom    4 type  1   force =     0.00000000   -0.09142612    3.94731621
     atom    5 type  2   force =    -0.00000000    0.45975566   38.37677368
     atom    6 type  2   force =    -0.00000000    0.45975566  -38.37677368
     atom    7 type  2   force =     0.00000000   -0.45975566   38.37677368
     atom    8 type  2   force =     0.00000000   -0.45975566  -38.37677368
     The core correction contribution to forces
     atom    1 type  1   force =    -0.00000000    0.00310733   -0.00270215
     atom    2 type  1   force =    -0.00000000    0.00310733    0.00270215
     atom    3 type  1   force =     0.00000000   -0.00310733   -0.00270215
     atom    4 type  1   force =     0.00000000   -0.00310733    0.00270215
     atom    5 type  2   force =     0.00000000    0.00000000    0.00000000
     atom    6 type  2   force =     0.00000000    0.00000000    0.00000000
     atom    7 type  2   force =     0.00000000    0.00000000    0.00000000
     atom    8 type  2   force =     0.00000000    0.00000000    0.00000000
     The Hubbard contrib.    to forces
     atom    1 type  1   force =     0.00000000    0.00000000    0.00000000
     atom    2 type  1   force =     0.00000000    0.00000000    0.00000000
     atom    3 type  1   force =     0.00000000    0.00000000    0.00000000
     atom    4 type  1   force =     0.00000000    0.00000000    0.00000000
     atom    5 type  2   force =     0.00000000    0.00000000    0.00000000
     atom    6 type  2   force =     0.00000000    0.00000000    0.00000000
     atom    7 type  2   force =     0.00000000    0.00000000    0.00000000
     atom    8 type  2   force =     0.00000000    0.00000000    0.00000000
     The SCF correction term to forces
     atom    1 type  1   force =     0.00000000    0.00001580   -0.00004225
     atom    2 type  1   force =     0.00000000    0.00001580    0.00004225
     atom    3 type  1   force =     0.00000000   -0.00001580   -0.00004225
     atom    4 type  1   force =     0.00000000   -0.00001580    0.00004225
     atom    5 type  2   force =     0.00000000   -0.00014076   -0.00005592
     atom    6 type  2   force =     0.00000000   -0.00014076    0.00005592
     atom    7 type  2   force =    -0.00000000    0.00014076   -0.00005592
     atom    8 type  2   force =     0.00000000    0.00014076    0.00005592

     Total force =     0.561235     Total SCF correction =     0.000316


     Computing stress (Cartesian axis) and pressure


     negative rho (up, down):  4.514E-06 0.000E+00
          total   stress  (Ry/bohr**3)                   (kbar)     P=      -94.15
  -0.00001079   0.00000000   0.00000000           -1.59        0.00        0.00
   0.00000000  -0.00049598   0.00000000            0.00      -72.96        0.00
   0.00000000   0.00000000  -0.00141323            0.00        0.00     -207.89

     kinetic stress (kbar)   8657.64      0.00      0.00
                                0.00   8494.48      0.00
                                0.00      0.00   8078.69

     local   stress (kbar)-140811.48     -0.00     -0.00
                               -0.00-141191.56      0.00
                               -0.00      0.00 136547.88

     nonloc. stress (kbar)   1196.26      0.00      0.00
                                0.00   1135.04      0.00
                                0.00      0.00   1049.32

     hartree stress (kbar)  70221.00     -0.00     -0.00
                               -0.00  70518.78     -0.00
                               -0.00     -0.00 -64932.74

     exc-cor stress (kbar)  -2051.44      0.00     -0.00
                                0.00  -2052.15      0.00
                               -0.00      0.00  -2056.71

     corecor stress (kbar)    -72.36      0.00     -0.00
                                0.00    -71.00     -0.00
                               -0.00     -0.00    -69.38

     ewald   stress (kbar)  62858.78     -0.00      0.00
                               -0.00  63093.46      0.00
                                0.00      0.00 -78824.95

     hubbard stress (kbar)      0.00      0.00      0.00
                                0.00      0.00      0.00
                                0.00      0.00      0.00

     DFT-D   stress (kbar)      0.00      0.00      0.00
                                0.00      0.00      0.00
                                0.00      0.00      0.00

     XDM     stress (kbar)      0.00      0.00      0.00
                                0.00      0.00      0.00
                                0.00      0.00      0.00

     dft-nl  stress (kbar)      0.00      0.00      0.00
                                0.00      0.00      0.00
                                0.00      0.00      0.00

     TS-vdW  stress (kbar)      0.00      0.00      0.00
                                0.00      0.00      0.00
                                0.00      0.00      0.00

     MDB     stress (kbar)      0.00      0.00      0.00
                                0.00      0.00      0.00
                                0.00      0.00      0.00

     3D-RISM stress (kbar)      0.00      0.00      0.00
                                0.00      0.00      0.00
                                0.00      0.00      0.00

     Energy error            =      1.2E-01 Ry
[...]
     5.3022   5.9344

     occupation numbers 
     1.0000   1.0000   1.0000   1.0000   1.0000   1.0000   1.0000   1.0000
     1.0000   1.0000   1.0000   1.0000   1.0000   1.0000   1.0000   1.0000
     1.0000   1.0000   1.0000   1.0000   1.0000   1.0000   0.0000   0.0000
     0.0000   0.0000

          k = 0.2216 0.2780 0.0000 (266783 PWs)   bands (ev):

   -27.5605 -27.4962 -26.8761 -26.8345 -17.2949 -16.8192 -12.0612 -11.6170
   -10.4091 -10.3218  -9.2348  -9.1714  -8.4194  -8.3637  -6.4172  -6.1302
    -6.0402  -5.9098  -5.0134  -4.9857  -4.4670  -4.3912   3.0118   3.7006
     5.7571   6.0262

     occupation numbers 
     1.0000   1.0000   1.0000   1.0000   1.0000   1.0000   1.0000   1.0000
     1.0000   1.0000   1.0000   1.0000   1.0000   1.0000   1.0000   1.0000
     1.0000   1.0000   1.0000   1.0000   1.0000   1.0000   0.0000   0.0000
     0.0000   0.0000

          k = 0.3324 0.0000 0.0000 (266692 PWs)   bands (ev):

   -27.5345 -27.3319 -26.7295 -26.6160 -17.4468 -14.2392 -13.9469 -11.4989
   -10.9800 -10.2685  -9.8295  -9.3680  -9.3489  -8.0920  -7.0376  -6.5409
    -6.3826  -6.2858  -5.8596  -4.9896  -4.8377  -4.5839   2.3908   4.0401
     5.5453   7.3120

     occupation numbers 
     1.0000   1.0000   1.0000   1.0000   1.0000   1.0000   1.0000   1.0000
     1.0000   1.0000   1.0000   1.0000   1.0000   1.0000   1.0000   1.0000
     1.0000   1.0000   1.0000   1.0000   1.0000   1.0000   0.0000   0.0000
     0.0000   0.0000

          k = 0.3324 0.0695 0.0000 (266736 PWs)   bands (ev):

   -27.5163 -27.3198 -26.7448 -26.6320 -17.3916 -14.5514 -13.7579 -11.3968
   -11.1603 -10.2990  -9.7615  -9.5413  -9.0655  -8.1945  -6.9613  -6.5901
    -6.3900  -6.1503  -5.7379  -5.1416  -4.8076  -4.5387   2.4526   4.1393
     5.4974   6.9227

     occupation numbers 
     1.0000   1.0000   1.0000   1.0000   1.0000   1.0000   1.0000   1.0000
     1.0000   1.0000   1.0000   1.0000   1.0000   1.0000   1.0000   1.0000
     1.0000   1.0000   1.0000   1.0000   1.0000   1.0000   0.0000   0.0000
     0.0000   0.0000

          k = 0.3324 0.1390 0.0000 (266720 PWs)   bands (ev):

   -27.4650 -27.2885 -26.7849 -26.6770 -17.2273 -15.0668 -13.5214 -11.5738
   -11.1756 -10.3951  -9.6160  -9.6150  -8.7561  -8.3647  -6.8367  -6.6003
    -6.3595  -5.8791  -5.5113  -5.4166  -4.7336  -4.5363   2.6473   4.3945
     5.3295   6.8605

     occupation numbers 
     1.0000   1.0000   1.0000   1.0000   1.0000   1.0000   1.0000   1.0000
     1.0000   1.0000   1.0000   1.0000   1.0000   1.0000   1.0000   1.0000
     1.0000   1.0000   1.0000   1.0000   1.0000   1.0000   0.0000   0.0000
     0.0000   0.0000

          k = 0.3324 0.2085 0.0000 (266709 PWs)   bands (ev):

   -27.3903 -27.2567 -26.8301 -26.7413 -16.9577 -15.6166 -13.2546 -12.0563
   -10.9526 -10.5118  -9.6460  -9.5474  -8.5111  -8.4119  -6.7651  -6.4284
    -6.3768  -5.6594  -5.5957  -5.3476  -4.6554  -4.5994   2.9933   4.5327
     5.1453   5.8804

     occupation numbers 
     1.0000   1.0000   1.0000   1.0000   1.0000   1.0000   1.0000   1.0000
     1.0000   1.0000   1.0000   1.0000   1.0000   1.0000   1.0000   1.0000
     1.0000   1.0000   1.0000   1.0000   1.0000   1.0000   0.0000   0.0000
     0.0000   0.0000

          k = 0.3324 0.2780 0.0000 (266738 PWs)   bands (ev):

   -27.3112 -27.2582 -26.8442 -26.8068 -16.5901 -16.1363 -12.9238 -12.5199
   -10.7703 -10.6299  -9.6435  -9.5943  -8.3755  -8.3623  -6.6612  -6.5071
    -6.1467  -5.8634  -5.4130  -5.3196  -4.6258  -4.6184   3.4927   4.0869
     5.3216   5.5716

     occupation numbers 
     1.0000   1.0000   1.0000   1.0000   1.0000   1.0000   1.0000   1.0000
     1.0000   1.0000   1.0000   1.0000   1.0000   1.0000   1.0000   1.0000
     1.0000   1.0000   1.0000   1.0000   1.0000   1.0000   0.0000   0.0000
     0.0000   0.0000

          k = 0.4432 0.0000 0.0000 (266816 PWs)   bands (ev):

   -27.1868 -27.0262 -26.9030 -26.7741 -16.4202 -15.1718 -13.2948 -12.1680
   -11.2400 -10.6110  -9.6355  -9.5136  -9.2037  -8.6151  -7.1612  -6.8993
    -6.3597  -6.2210  -6.1197  -5.5724  -4.9436  -4.8755   3.2737   4.3502
     4.7544   5.8837

     occupation numbers 
     1.0000   1.0000   1.0000   1.0000   1.0000   1.0000   1.0000   1.0000
     1.0000   1.0000   1.0000   1.0000   1.0000   1.0000   1.0000   1.0000
     1.0000   1.0000   1.0000   1.0000   1.0000   1.0000   0.0000   0.0000
     0.0000   0.0000

          k = 0.4432 0.0695 0.0000 (266742 PWs)   bands (ev):

   -27.1785 -27.0232 -26.9046 -26.7792 -16.3705 -15.1389 -13.4903 -12.3767
   -11.1119 -10.5326  -9.6748  -9.6553  -9.0101  -8.6227  -7.0388  -6.7809
    -6.4605  -6.4010  -5.8959  -5.6279  -4.8862  -4.7994   3.3178   4.3726
     4.7526   5.7348

     occupation numbers 
     1.0000   1.0000   1.0000   1.0000   1.0000   1.0000   1.0000   1.0000
     1.0000   1.0000   1.0000   1.0000   1.0000   1.0000   1.0000   1.0000
     1.0000   1.0000   1.0000   1.0000   1.0000   1.0000   0.0000   0.0000
     0.0000   0.0000

          k = 0.4432 0.1390 0.0000 (266751 PWs)   bands (ev):

   -27.1551 -27.0186 -26.9061 -26.7942 -16.2228 -15.0590 -13.9002 -12.8345
   -10.8813 -10.4463  -9.8638  -9.7403  -8.7133  -8.5581  -6.7857  -6.6666
    -6.5677  -6.4476  -5.6792  -5.6618  -4.7651  -4.6983   3.4590   4.4255
     4.7807   5.4582

     occupation numbers 
     1.0000   1.0000   1.0000   1.0000   1.0000   1.0000   1.0000   1.0000
     1.0000   1.0000   1.0000   1.0000   1.0000   1.0000   1.0000   1.0000
     1.0000   1.0000   1.0000   1.0000   1.0000   1.0000   0.0000   0.0000
     0.0000   0.0000

          k = 0.4432 0.2085 0.0000 (266725 PWs)   bands (ev):

   -27.1209 -27.0243 -26.8981 -26.8176 -15.9820 -15.0466 -14.2126 -13.3412
   -10.7072 -10.4673  -9.9578  -9.8661  -8.4589  -8.4096  -6.8918  -6.7449
    -6.3586  -6.0778  -5.6415  -5.5425  -4.6780  -4.6752   3.7044   4.4007
     4.9448   5.2486

     occupation numbers 
     1.0000   1.0000   1.0000   1.0000   1.0000   1.0000   1.0000   1.0000
     1.0000   1.0000   1.0000   1.0000   1.0000   1.0000   1.0000   1.0000
     1.0000   1.0000   1.0000   1.0000   1.0000   1.0000   0.0000   0.0000
     0.0000   0.0000

          k = 0.4432 0.2780 0.0000 (266745 PWs)   bands (ev):

   -27.0825 -27.0474 -26.8759 -26.8465 -15.6609 -15.2994 -14.1382 -13.7989
   -10.6064 -10.5362  -9.9815  -9.9550  -8.3131  -8.3014  -6.9487  -6.8941
    -5.9922  -5.7770  -5.6812  -5.5427  -4.6853  -4.6682   4.0062   4.2561
     5.1350   5.1753

     occupation numbers 
     1.0000   1.0000   1.0000   1.0000   1.0000   1.0000   1.0000   1.0000
     1.0000   1.0000   1.0000   1.0000   1.0000   1.0000   1.0000   1.0000
     1.0000   1.0000   1.0000   1.0000   1.0000   1.0000   0.0000   0.0000
     0.0000   0.0000

     the Fermi energy is    -1.4938 ev

!    total energy              =    -240.24741005 Ry
     estimated scf accuracy    <          1.7E-09 Ry
     smearing contrib. (-TS)   =       0.00000000 Ry
     internal energy E=F+TS    =    -240.24741005 Ry

     The total energy is F=E-TS. E is the sum of the following terms:
     one-electron contribution =   -1256.55961787 Ry
     hartree contribution      =     642.05001497 Ry
     xc contribution           =     -51.69356065 Ry
     ewald contribution        =     425.95575350 Ry

     convergence has been achieved in   6 iterations

     negative rho (up, down):  5.385E-06 0.000E+00

     Forces acting on atoms (cartesian axes, Ry/au):

     atom    1 type  1   force =    -0.00000000    0.00001528    0.00000265
     atom    2 type  1   force =     0.00000000    0.00001528   -0.00000265
     atom    3 type  1   force =     0.00000000   -0.00001528    0.00000265
     atom    4 type  1   force =     0.00000000   -0.00001528   -0.00000265
     atom    5 type  2   force =     0.00000000   -0.00001757   -0.00000185
     atom    6 type  2   force =     0.00000000   -0.00001757    0.00000185
     atom    7 type  2   force =    -0.00000000    0.00001757   -0.00000185
     atom    8 type  2   force =     0.00000000    0.00001757    0.00000185
     The non-local contrib.  to forces
     atom    1 type  1   force =     0.00000000   -0.16222756    0.36791209
     atom    2 type  1   force =     0.00000000   -0.16222756   -0.36791209
     atom    3 type  1   force =     0.00000000    0.16222756    0.36791209
     atom    4 type  1   force =     0.00000000    0.16222756   -0.36791209
     atom    5 type  2   force =     0.00000000   -0.97067265    2.28346303
     atom    6 type  2   force =     0.00000000   -0.97067265   -2.28346303
     atom    7 type  2   force =     0.00000000    0.97067265    2.28346303
     atom    8 type  2   force =    -0.00000000    0.97067265   -2.28346303
     The ionic contribution  to forces
     atom    1 type  1   force =     0.00000000    0.91411670    2.68734992
     atom    2 type  1   force =    -0.00000000    0.91411670   -2.68734992
     atom    3 type  1   force =    -0.00000000   -0.91411670    2.68734992
     atom    4 type  1   force =     0.00000000   -0.91411670   -2.68734992
     atom    5 type  2   force =     0.00000000    4.28277619  -44.49812613
     atom    6 type  2   force =    -0.00000000    4.28277619   44.49812613
     atom    7 type  2   force =    -0.00000000   -4.28277619  -44.49812613
     atom    8 type  2   force =     0.00000000   -4.28277619   44.49812613
     The local contribution  to forces
     atom    1 type  1   force =     0.00000000   -0.75285311   -3.05257838
     atom    2 type  1   force =    -0.00000000   -0.75285311    3.05257838
     atom    3 type  1   force =     0.00000000    0.75285311   -3.05257838
     atom    4 type  1   force =     0.00000000    0.75285311    3.05257838
     atom    5 type  2   force =     0.00000000   -3.31211163   42.21455929
     atom    6 type  2   force =     0.00000000   -3.31211163  -42.21455929
     atom    7 type  2   force =     0.00000000    3.31211163   42.21455929
     atom    8 type  2   force =     0.00000000    3.31211163  -42.21455929
     The core correction contribution to forces
     atom    1 type  1   force =    -0.00000000    0.00097325   -0.00267371
     atom    2 type  1   force =    -0.00000000    0.00097325    0.00267371
     atom    3 type  1   force =     0.00000000   -0.00097325   -0.00267371
     atom    4 type  1   force =     0.00000000   -0.00097325    0.00267371
     atom    5 type  2   force =     0.00000000    0.00000000    0.00000000
     atom    6 type  2   force =     0.00000000    0.00000000    0.00000000
     atom    7 type  2   force =     0.00000000    0.00000000    0.00000000
     atom    8 type  2   force =     0.00000000    0.00000000    0.00000000
     The Hubbard contrib.    to forces
     atom    1 type  1   force =     0.00000000    0.00000000    0.00000000
     atom    2 type  1   force =     0.00000000    0.00000000    0.00000000
     atom    3 type  1   force =     0.00000000    0.00000000    0.00000000
     atom    4 type  1   force =     0.00000000    0.00000000    0.00000000
     atom    5 type  2   force =     0.00000000    0.00000000    0.00000000
     atom    6 type  2   force =     0.00000000    0.00000000    0.00000000
     atom    7 type  2   force =     0.00000000    0.00000000    0.00000000
     atom    8 type  2   force =     0.00000000    0.00000000    0.00000000
     The SCF correction term to forces
     atom    1 type  1   force =    -0.00000000    0.00000600   -0.00000727
     atom    2 type  1   force =    -0.00000000    0.00000600    0.00000727
     atom    3 type  1   force =    -0.00000000   -0.00000600   -0.00000727
     atom    4 type  1   force =    -0.00000000   -0.00000600    0.00000727
     atom    5 type  2   force =    -0.00000000   -0.00000947    0.00010196
     atom    6 type  2   force =    -0.00000000   -0.00000947   -0.00010196
     atom    7 type  2   force =    -0.00000000    0.00000947    0.00010196
     atom    8 type  2   force =    -0.00000000    0.00000947   -0.00010196

     Total force =     0.000047     Total SCF correction =     0.000206
     SCF correction compared to forces is large: reduce conv_thr to get better values


     Computing stress (Cartesian axis) and pressure


     negative rho (up, down):  5.385E-06 0.000E+00
          total   stress  (Ry/bohr**3)                   (kbar)     P=       -0.05
  -0.00000039   0.00000000   0.00000000           -0.06        0.00        0.00
   0.00000000  -0.00000032   0.00000000            0.00       -0.05        0.00
   0.00000000   0.00000000  -0.00000032            0.00        0.00       -0.05

     kinetic stress (kbar)   9136.29      0.00      0.00
                                0.00   8959.19      0.00
                                0.00      0.00   8301.99

     local   stress (kbar)-161130.38      0.00      0.00
                                0.00-162236.13     -0.00
                                0.00     -0.00 155433.29

     nonloc. stress (kbar)   1180.29      0.00      0.00
                                0.00   1137.51      0.00
                                0.00      0.00    963.83

     hartree stress (kbar)  80832.32     -0.00      0.00
                               -0.00  81120.30      0.00
                                0.00      0.00 -74852.62

     exc-cor stress (kbar)  -2141.93     -0.00     -0.00
                               -0.00  -2137.97     -0.00
                               -0.00     -0.00  -2131.30

     corecor stress (kbar)    -73.65      0.00      0.00
                                0.00    -73.49     -0.00
                                0.00     -0.00    -72.53

     ewald   stress (kbar)  72196.99      0.00     -0.00
                                0.00  73230.55     -0.00
                               -0.00     -0.00 -87642.71

     hubbard stress (kbar)      0.00      0.00      0.00
                                0.00      0.00      0.00
                                0.00      0.00      0.00

     DFT-D   stress (kbar)      0.00      0.00      0.00
                                0.00      0.00      0.00
                                0.00      0.00      0.00

     XDM     stress (kbar)      0.00      0.00      0.00
                                0.00      0.00      0.00
                                0.00      0.00      0.00

     dft-nl  stress (kbar)      0.00      0.00      0.00
                                0.00      0.00      0.00
                                0.00      0.00      0.00

     TS-vdW  stress (kbar)      0.00      0.00      0.00
                                0.00      0.00      0.00
                                0.00      0.00      0.00

     MDB     stress (kbar)      0.00      0.00      0.00
                                0.00      0.00      0.00
                                0.00      0.00      0.00

     3D-RISM stress (kbar)      0.00      0.00      0.00
                                0.00      0.00      0.00
                                0.00      0.00      0.00

     Message from routine bfgs:
     history already reset at previous step: exiting
     Energy error            =      7.4E-09 Ry
     Gradient error          =      1.8E-05 Ry/Bohr
     Cell gradient error     =      5.7E-02 kbar

     bfgs failed after  21 scf cycles and  18 bfgs steps, convergence not achieved
     (criteria: energy <  5.0E-04 Ry, force <  1.0E-04 Ry/Bohr, cell <  5.0E-02 kbar)

     End of BFGS Geometry Optimization

     Final enthalpy           =    -240.2474100500 Ry

     File ../tmp/fgz.bfgs deleted, as requested
Begin final coordinates
     new unit-cell volume =   1084.37210 a.u.^3 (   160.68737 Ang^3 )
     density =      1.28179 g/cm^3

CELL_PARAMETERS (angstrom)
   2.630007256   0.000000000   0.000000000
   0.000000000   4.192863109   0.000000000
   0.000000000   0.000000000  14.571830239

ATOMIC_POSITIONS (crystal)
C             0.5000000000        0.1415397427        0.0349639993
C             0.0000000000        0.6415397427       -0.0349639993
C             0.0000000000        0.3584602573        0.0349639993
C             0.5000000000        0.8584602573       -0.0349639993
F             0.5000000000       -0.0060134287       -0.1212874556
F             0.0000000000        0.4939865713        0.1212874556
F             0.0000000000        0.5060134287       -0.1212874556
F             0.5000000000        0.0060134287        0.1212874556
End final coordinates



     Writing config-only to output data dir ../tmp/fgz.save/

     Writing all to output data dir ../tmp/fgz.save/

     init_run     :     42.94s CPU     80.39s WALL (       1 calls)
     electrons    :  33617.44s CPU  62057.15s WALL (      21 calls)
     update_pot   :     19.85s CPU     19.90s WALL (      20 calls)
     forces       :   1028.52s CPU   1904.00s WALL (      21 calls)
     stress       :    443.85s CPU    897.24s WALL (      21 calls)

     Called by init_run:
     wfcinit      :     41.06s CPU     78.20s WALL (       1 calls)
     wfcinit:atom :      0.03s CPU      0.01s WALL (      25 calls)
     wfcinit:wfcr :     40.54s CPU     77.42s WALL (      25 calls)
     potinit      :      0.28s CPU      0.29s WALL (       1 calls)
     hinit0       :      0.68s CPU      0.71s WALL (       1 calls)

     Called by electrons:
     c_bands      :  32561.98s CPU  59608.69s WALL (     168 calls)
     sum_band     :   1008.84s CPU   2354.81s WALL (     168 calls)
     v_of_rho     :      8.05s CPU      8.62s WALL (     180 calls)
     v_h          :      0.83s CPU      0.88s WALL (     180 calls)
     v_xc         :      8.77s CPU      9.38s WALL (     222 calls)
     newd         :     34.78s CPU     75.76s WALL (     180 calls)
     mix_rho      :      3.51s CPU      4.32s WALL (     168 calls)

     Called by c_bands:
     init_us_2    :      7.30s CPU     18.49s WALL (    9475 calls)
     init_us_2:cp :      7.25s CPU     18.26s WALL (    9475 calls)
     cegterg      :  31167.48s CPU  56703.91s WALL (    4216 calls)

     Called by sum_band:
     sum_band:wei :      0.01s CPU      0.01s WALL (     168 calls)
     sum_band:loo :    958.74s CPU   2238.29s WALL (     168 calls)
     sum_band:buf :      1.03s CPU      2.15s WALL (    4200 calls)
     sum_band:ini :      2.37s CPU      4.72s WALL (    4200 calls)
     sum_band:cal :    862.14s CPU   2117.35s WALL (    4200 calls)
     sum_band:bec :      0.03s CPU      0.07s WALL (    4200 calls)
     addusdens    :     20.52s CPU     80.02s WALL (     168 calls)
     addusd:skk   :      0.39s CPU      1.91s WALL (     336 calls)
     addusd:dgemm :     13.42s CPU     57.71s WALL (     336 calls)
     addusd:qvan2 :      6.29s CPU     19.73s WALL (     336 calls)

     Called by *egterg:
     cdiaghg      :   2884.72s CPU   2973.84s WALL (   18230 calls)
     cegterg:over :  10982.15s CPU  17718.87s WALL (   14755 calls)
     cegterg:upda :    700.82s CPU   1403.98s WALL (   14755 calls)
     cegterg:last :    827.01s CPU   1683.93s WALL (   10173 calls)
     h_psi        :   7006.31s CPU  17234.72s WALL (   18996 calls)
     s_psi        :    228.42s CPU    598.25s WALL (   18996 calls)
     g_psi        :      3.57s CPU      2.88s WALL (   14755 calls)

     Called by h_psi:
     h_psi:calbec :   4487.58s CPU  11170.68s WALL (   18996 calls)
     vloc_psi     :   1312.51s CPU   1566.29s WALL (   18996 calls)
     add_vuspsi   :   1203.57s CPU   4487.51s WALL (   18996 calls)

     General routines
     calbec       :   6646.15s CPU  15636.77s WALL (   25821 calls)
     fft          :     13.81s CPU     14.90s WALL (    2534 calls)
     ffts         :      1.11s CPU      1.29s WALL (     168 calls)
     fftw         :   1373.45s CPU   1609.32s WALL (  757370 calls)
     davcio       :      0.00s CPU      0.01s WALL (      25 calls)

     Parallel routines

     PWSCF        :      9h46m CPU     18h 3m WALL


   This run was terminated on:   7:34: 5  16Jan2024            

=------------------------------------------------------------------------------=
   JOB DONE.
=------------------------------------------------------------------------------=
