
     Program PWSCF v.7.1 starts on 16Jan2024 at 14:27:42 

     This program is part of the open-source Quantum ESPRESSO suite
     for quantum simulation of materials; please cite
         "P. Giannozzi et al., J. Phys.:Condens. Matter 21 395502 (2009);
         "P. Giannozzi et al., J. Phys.:Condens. Matter 29 465901 (2017);
         "P. Giannozzi et al., J. Chem. Phys. 152 154105 (2020);
          URL http://www.quantum-espresso.org", 
     in publications or presentations arising from this work. More details at
     http://www.quantum-espresso.org/quote

     Parallel version (MPI), running on    88 processors

     MPI processes distributed on     1 nodes
     351372 MiB available memory on the printing compute node when the environment starts

     Reading input from vc-relax2.in

     Current dimensions of program PWSCF are:
     Max number of different atomic species (ntypx) = 10
     Max number of k-points (npk) =  40000
     Max angular momentum in pseudopotentials (lmaxx) =  4

     File ../tmp/fgz.update deleted, as requested
     Message from routine setup:
     using ibrav=0 with symmetry is DISCOURAGED, use correct ibrav instead

     R & G space division:  proc/nbgrp/npool/nimage =      88
     Subspace diagonalization in iterative solution of the eigenvalue problem:
     a serial algorithm will be used


     Parallelization info
     --------------------
     sticks:   dense  smooth     PW     G-vecs:    dense   smooth      PW
     Min          85      85     22                24455    24455    3300
     Max          86      86     23                24482    24482    3325
     Sum        7511    7511   1981              2153051  2153051  291541

     Using Slab Decomposition



     bravais-lattice index     =            0
     lattice parameter (alat)  =       4.9700  a.u.
     unit-cell volume          =    1084.3721 (a.u.)^3
     number of atoms/cell      =            8
     number of atomic types    =            2
     number of electrons       =        44.00
     number of Kohn-Sham states=           26
     kinetic-energy cutoff     =     600.0000  Ry
     charge density cutoff     =    2400.0000  Ry
     scf convergence threshold =      1.0E-06
     mixing beta               =       0.7000
     number of iterations used =            8  plain     mixing
     energy convergence thresh.=      5.0E-05
     force convergence thresh. =      1.0E-05
     press convergence thresh. =      2.5E-02
     Exchange-correlation=  SLA  PW   PBX  PBC
                           (   1   4   3   4   0   0   0)
     nstep                     =           50


     celldm(1)=   4.969993  celldm(2)=   0.000000  celldm(3)=   0.000000
     celldm(4)=   0.000000  celldm(5)=   0.000000  celldm(6)=   0.000000

     crystal axes: (cart. coord. in units of alat)
               a(1) = (   1.000000   0.000000   0.000000 )  
               a(2) = (   0.000000   1.594240   0.000000 )  
               a(3) = (   0.000000   0.000000   5.540605 )  

     reciprocal axes: (cart. coord. in units 2 pi/alat)
               b(1) = (  1.000000  0.000000  0.000000 )  
               b(2) = (  0.000000  0.627258  0.000000 )  
               b(3) = (  0.000000  0.000000  0.180486 )  


     PseudoPot. # 1 for C  read from file:
     ../pseudo/c_pbe_v1.2.uspp.F.UPF
     MD5 check sum: d1aef80898a10debaa0f26306b886e00
     Pseudo is Ultrasoft + core correction, Zval =  4.0
     Generated by new atomic code, or converted to UPF format
     Using radial grid of  721 points,  4 beta functions with: 
                l(1) =   0
                l(2) =   0
                l(3) =   1
                l(4) =   1
     Q(r) pseudized with  8 coefficients,  rinner =    1.100   1.100   1.100


     PseudoPot. # 2 for F  read from file:
     ../pseudo/f_pbe_v1.4.uspp.F.UPF
     MD5 check sum: 4c38b6a325caf53ec0e86aed9459de46
     Pseudo is Ultrasoft, Zval =  7.0
     Generated by new atomic code, or converted to UPF format
     Using radial grid of  799 points,  4 beta functions with: 
                l(1) =   0
                l(2) =   0
                l(3) =   1
                l(4) =   1
     Q(r) pseudized with  8 coefficients,  rinner =    0.950   0.950   0.950


     atomic species   valence    mass     pseudopotential
        C              4.00    12.01070     C ( 1.00)
        F              7.00    18.99840     F ( 1.00)

      8 Sym. Ops., with inversion, found ( 4 have fractional translation)


                                    s                        frac. trans.

      isym =  1     identity                                     

 cryst.   s( 1) = (     1          0          0      )
                  (     0          1          0      )
                  (     0          0          1      )

 cart.    s( 1) = (  1.0000000  0.0000000  0.0000000 )
                  (  0.0000000  1.0000000  0.0000000 )
                  (  0.0000000  0.0000000  1.0000000 )


      isym =  2     180 deg rotation - cart. axis [0,0,1]        

 cryst.   s( 2) = (    -1          0          0      )    f =(  0.5000000 )
                  (     0         -1          0      )       ( -0.5000000 )
                  (     0          0          1      )       (  0.0000000 )

 cart.    s( 2) = ( -1.0000000  0.0000000  0.0000000 )    f =(  0.5000000 )
                  (  0.0000000 -1.0000000  0.0000000 )       ( -0.7971201 )
                  (  0.0000000  0.0000000  1.0000000 )       (  0.0000000 )


      isym =  3     180 deg rotation - cart. axis [0,1,0]        

 cryst.   s( 3) = (    -1          0          0      )    f =(  0.5000000 )
                  (     0          1          0      )       ( -0.5000000 )
                  (     0          0         -1      )       (  0.0000000 )

 cart.    s( 3) = ( -1.0000000  0.0000000  0.0000000 )    f =(  0.5000000 )
                  (  0.0000000  1.0000000  0.0000000 )       ( -0.7971201 )
                  (  0.0000000  0.0000000 -1.0000000 )       (  0.0000000 )


      isym =  4     180 deg rotation - cart. axis [1,0,0]        

 cryst.   s( 4) = (     1          0          0      )
                  (     0         -1          0      )
                  (     0          0         -1      )

 cart.    s( 4) = (  1.0000000  0.0000000  0.0000000 )
                  (  0.0000000 -1.0000000  0.0000000 )
                  (  0.0000000  0.0000000 -1.0000000 )


      isym =  5     inversion                                    

 cryst.   s( 5) = (    -1          0          0      )
                  (     0         -1          0      )
                  (     0          0         -1      )

 cart.    s( 5) = ( -1.0000000  0.0000000  0.0000000 )
                  (  0.0000000 -1.0000000  0.0000000 )
                  (  0.0000000  0.0000000 -1.0000000 )


      isym =  6     inv. 180 deg rotation - cart. axis [0,0,1]   

 cryst.   s( 6) = (     1          0          0      )    f =(  0.5000000 )
                  (     0          1          0      )       ( -0.5000000 )
                  (     0          0         -1      )       (  0.0000000 )

 cart.    s( 6) = (  1.0000000  0.0000000  0.0000000 )    f =(  0.5000000 )
                  (  0.0000000  1.0000000  0.0000000 )       ( -0.7971201 )
                  (  0.0000000  0.0000000 -1.0000000 )       (  0.0000000 )


      isym =  7     inv. 180 deg rotation - cart. axis [0,1,0]   

 cryst.   s( 7) = (     1          0          0      )    f =(  0.5000000 )
                  (     0         -1          0      )       ( -0.5000000 )
                  (     0          0          1      )       (  0.0000000 )

 cart.    s( 7) = (  1.0000000  0.0000000  0.0000000 )    f =(  0.5000000 )
                  (  0.0000000 -1.0000000  0.0000000 )       ( -0.7971201 )
                  (  0.0000000  0.0000000  1.0000000 )       (  0.0000000 )


      isym =  8     inv. 180 deg rotation - cart. axis [1,0,0]   

 cryst.   s( 8) = (    -1          0          0      )
                  (     0          1          0      )
                  (     0          0          1      )

 cart.    s( 8) = ( -1.0000000  0.0000000  0.0000000 )
                  (  0.0000000  1.0000000  0.0000000 )
                  (  0.0000000  0.0000000  1.0000000 )


   Cartesian axes

     site n.     atom                  positions (alat units)
         1           C   tau(   1) = (   0.5000000   0.2256483   0.1937217  )
         2           C   tau(   2) = (   0.0000000   1.0227684  -0.1937217  )
         3           C   tau(   3) = (   0.0000000   0.5714717   0.1937217  )
         4           C   tau(   4) = (   0.5000000   1.3685918  -0.1937217  )
         5           F   tau(   5) = (   0.5000000   0.0000000  -0.6720058  )
         6           F   tau(   6) = (   0.0000000   0.7971201   0.6720058  )
         7           F   tau(   7) = (   0.0000000   0.7971201  -0.6720058  )
         8           F   tau(   8) = (   0.5000000   0.0000000   0.6720058  )

   Crystallographic axes

     site n.     atom                  positions (cryst. coord.)
         1           C   tau(   1) = (  0.5000000  0.1415397  0.0349640  )
         2           C   tau(   2) = (  0.0000000  0.6415397 -0.0349640  )
         3           C   tau(   3) = (  0.0000000  0.3584603  0.0349640  )
         4           C   tau(   4) = (  0.5000000  0.8584603 -0.0349640  )
         5           F   tau(   5) = (  0.5000000  0.0000000 -0.1212875  )
         6           F   tau(   6) = (  0.0000000  0.5000000  0.1212875  )
         7           F   tau(   7) = (  0.0000000  0.5000000 -0.1212875  )
         8           F   tau(   8) = (  0.5000000  0.0000000  0.1212875  )

     number of k points=    25  Marzari-Vanderbilt smearing, width (Ry)=  0.0010
                       cart. coord. in units 2pi/alat
        k(    1) = (   0.0000000   0.0000000   0.0000000), wk =   0.0246914
        k(    2) = (   0.0000000   0.0696953   0.0000000), wk =   0.0493827
        k(    3) = (   0.0000000   0.1393907   0.0000000), wk =   0.0493827
        k(    4) = (   0.0000000   0.2090860   0.0000000), wk =   0.0493827
        k(    5) = (   0.0000000   0.2787814   0.0000000), wk =   0.0493827
        k(    6) = (   0.1111111   0.0000000   0.0000000), wk =   0.0493827
        k(    7) = (   0.1111111   0.0696953   0.0000000), wk =   0.0987654
        k(    8) = (   0.1111111   0.1393907   0.0000000), wk =   0.0987654
        k(    9) = (   0.1111111   0.2090860   0.0000000), wk =   0.0987654
        k(   10) = (   0.1111111   0.2787814   0.0000000), wk =   0.0987654
        k(   11) = (   0.2222222   0.0000000   0.0000000), wk =   0.0493827
        k(   12) = (   0.2222222   0.0696953   0.0000000), wk =   0.0987654
        k(   13) = (   0.2222222   0.1393907   0.0000000), wk =   0.0987654
        k(   14) = (   0.2222222   0.2090860   0.0000000), wk =   0.0987654
        k(   15) = (   0.2222222   0.2787814   0.0000000), wk =   0.0987654
        k(   16) = (   0.3333333   0.0000000   0.0000000), wk =   0.0493827
        k(   17) = (   0.3333333   0.0696953   0.0000000), wk =   0.0987654
        k(   18) = (   0.3333333   0.1393907   0.0000000), wk =   0.0987654
        k(   19) = (   0.3333333   0.2090860   0.0000000), wk =   0.0987654
        k(   20) = (   0.3333333   0.2787814   0.0000000), wk =   0.0987654
        k(   21) = (   0.4444444   0.0000000   0.0000000), wk =   0.0493827
        k(   22) = (   0.4444444   0.0696953   0.0000000), wk =   0.0987654
        k(   23) = (   0.4444444   0.1393907   0.0000000), wk =   0.0987654
        k(   24) = (   0.4444444   0.2090860   0.0000000), wk =   0.0987654
        k(   25) = (   0.4444444   0.2787814   0.0000000), wk =   0.0987654

                       cryst. coord.
        k(    1) = (   0.0000000   0.0000000   0.0000000), wk =   0.0246914
        k(    2) = (   0.0000000   0.1111111   0.0000000), wk =   0.0493827
        k(    3) = (   0.0000000   0.2222222   0.0000000), wk =   0.0493827
        k(    4) = (   0.0000000   0.3333333   0.0000000), wk =   0.0493827
        k(    5) = (   0.0000000   0.4444444   0.0000000), wk =   0.0493827
        k(    6) = (   0.1111111   0.0000000   0.0000000), wk =   0.0493827
        k(    7) = (   0.1111111   0.1111111   0.0000000), wk =   0.0987654
        k(    8) = (   0.1111111   0.2222222   0.0000000), wk =   0.0987654
        k(    9) = (   0.1111111   0.3333333   0.0000000), wk =   0.0987654
        k(   10) = (   0.1111111   0.4444444   0.0000000), wk =   0.0987654
        k(   11) = (   0.2222222   0.0000000   0.0000000), wk =   0.0493827
        k(   12) = (   0.2222222   0.1111111   0.0000000), wk =   0.0987654
        k(   13) = (   0.2222222   0.2222222   0.0000000), wk =   0.0987654
        k(   14) = (   0.2222222   0.3333333   0.0000000), wk =   0.0987654
        k(   15) = (   0.2222222   0.4444444   0.0000000), wk =   0.0987654
        k(   16) = (   0.3333333   0.0000000   0.0000000), wk =   0.0493827
        k(   17) = (   0.3333333   0.1111111   0.0000000), wk =   0.0987654
        k(   18) = (   0.3333333   0.2222222   0.0000000), wk =   0.0987654
        k(   19) = (   0.3333333   0.3333333   0.0000000), wk =   0.0987654
        k(   20) = (   0.3333333   0.4444444   0.0000000), wk =   0.0987654
        k(   21) = (   0.4444444   0.0000000   0.0000000), wk =   0.0493827
        k(   22) = (   0.4444444   0.1111111   0.0000000), wk =   0.0987654
        k(   23) = (   0.4444444   0.2222222   0.0000000), wk =   0.0987654
        k(   24) = (   0.4444444   0.3333333   0.0000000), wk =   0.0987654
        k(   25) = (   0.4444444   0.4444444   0.0000000), wk =   0.0987654

     Dense  grid:  2153051 G-vectors     FFT dimensions: (  80, 128, 432)

     Dynamical RAM for                 wfc:       1.21 MB

     Dynamical RAM for     wfc (w. buffer):      31.54 MB

     Dynamical RAM for           str. fact:       0.75 MB

     Dynamical RAM for           local pot:       0.00 MB

     Dynamical RAM for          nlocal pot:       2.99 MB

     Dynamical RAM for                qrad:       4.49 MB

     Dynamical RAM for          rho,v,vnew:       2.29 MB

     Dynamical RAM for               rhoin:       0.76 MB

     Dynamical RAM for            rho*nmix:       5.97 MB

     Dynamical RAM for           G-vectors:       1.59 MB

     Dynamical RAM for          h,s,v(r/c):       0.12 MB

     Dynamical RAM for          <psi|beta>:       0.03 MB

     Dynamical RAM for                 psi:       2.43 MB

     Dynamical RAM for                hpsi:       2.43 MB

     Dynamical RAM for                spsi:       2.43 MB

     Dynamical RAM for      wfcinit/wfcrot:       3.01 MB

     Dynamical RAM for           addusdens:      17.55 MB

     Dynamical RAM for          addusforce:      19.98 MB

     Dynamical RAM for         addusstress:      18.67 MB

     Estimated static dynamical RAM per process >      47.48 MB

     Estimated max dynamical RAM per process >      73.43 MB

     Estimated total dynamical RAM >       6.31 GB

     Initial potential from superposition of free atoms

     starting charge      43.9998, renormalised to      44.0000

     negative rho (up, down):  1.100E-03 0.000E+00
     Starting wfcs are   32 randomized atomic wfcs

     total cpu time spent up to now is       81.8 secs

     Self-consistent Calculation

     iteration #  1     ecut=   600.00 Ry     beta= 0.70
     Davidson diagonalization with overlap

---- Real-time Memory Report at c_bands before calling an iterative solver
           126 MiB given to the printing process from OS
             0 MiB allocation reported by mallinfo(arena+hblkhd)
        346114 MiB available memory on the node where the printing process lives
------------------
     ethr =  1.00E-02,  avg # of iterations =  3.2

     negative rho (up, down):  2.745E-04 0.000E+00

     total cpu time spent up to now is      432.2 secs

     total energy              =    -240.11454804 Ry
     estimated scf accuracy    <       0.44177950 Ry

     iteration #  2     ecut=   600.00 Ry     beta= 0.70
     Davidson diagonalization with overlap

---- Real-time Memory Report at c_bands before calling an iterative solver
           144 MiB given to the printing process from OS
             0 MiB allocation reported by mallinfo(arena+hblkhd)
        344169 MiB available memory on the node where the printing process lives
------------------
     ethr =  1.00E-03,  avg # of iterations =  3.3

     negative rho (up, down):  1.668E-04 0.000E+00

     total cpu time spent up to now is      779.2 secs

     total energy              =    -240.12922883 Ry
     estimated scf accuracy    <       0.44857980 Ry

     iteration #  3     ecut=   600.00 Ry     beta= 0.70
     Davidson diagonalization with overlap

---- Real-time Memory Report at c_bands before calling an iterative solver
           148 MiB given to the printing process from OS
             0 MiB allocation reported by mallinfo(arena+hblkhd)
        344071 MiB available memory on the node where the printing process lives
------------------
     ethr =  1.00E-03,  avg # of iterations =  2.3

     negative rho (up, down):  2.633E-05 0.000E+00

     total cpu time spent up to now is     1065.6 secs

     total energy              =    -240.24318202 Ry
     estimated scf accuracy    <       0.02174031 Ry

     iteration #  4     ecut=   600.00 Ry     beta= 0.70
     Davidson diagonalization with overlap

---- Real-time Memory Report at c_bands before calling an iterative solver
           149 MiB given to the printing process from OS
             0 MiB allocation reported by mallinfo(arena+hblkhd)
        343734 MiB available memory on the node where the printing process lives
------------------
     ethr =  4.94E-05,  avg # of iterations =  4.6

     negative rho (up, down):  5.354E-06 0.000E+00

     total cpu time spent up to now is     1477.9 secs

     total energy              =    -240.24545485 Ry
     estimated scf accuracy    <       0.00169008 Ry

     iteration #  5     ecut=   600.00 Ry     beta= 0.70
     Davidson diagonalization with overlap

---- Real-time Memory Report at c_bands before calling an iterative solver
           149 MiB given to the printing process from OS
             0 MiB allocation reported by mallinfo(arena+hblkhd)
        343656 MiB available memory on the node where the printing process lives
------------------
     ethr =  3.84E-06,  avg # of iterations =  4.8

     negative rho (up, down):  5.117E-06 0.000E+00

     total cpu time spent up to now is     1927.6 secs

     total energy              =    -240.24580784 Ry
     estimated scf accuracy    <       0.00002233 Ry

     iteration #  6     ecut=   600.00 Ry     beta= 0.70
     Davidson diagonalization with overlap

---- Real-time Memory Report at c_bands before calling an iterative solver
           150 MiB given to the printing process from OS
             0 MiB allocation reported by mallinfo(arena+hblkhd)
        343603 MiB available memory on the node where the printing process lives
------------------
     ethr =  5.07E-08,  avg # of iterations =  3.8

     negative rho (up, down):  5.154E-06 0.000E+00

     total cpu time spent up to now is     2323.0 secs

     total energy              =    -240.24581865 Ry
     estimated scf accuracy    <       0.00001787 Ry

     iteration #  7     ecut=   600.00 Ry     beta= 0.70
     Davidson diagonalization with overlap

---- Real-time Memory Report at c_bands before calling an iterative solver
           151 MiB given to the printing process from OS
             0 MiB allocation reported by mallinfo(arena+hblkhd)
        343526 MiB available memory on the node where the printing process lives
------------------
     ethr =  4.06E-08,  avg # of iterations =  2.0

     negative rho (up, down):  5.170E-06 0.000E+00

     total cpu time spent up to now is     2574.4 secs

     total energy              =    -240.24581949 Ry
     estimated scf accuracy    <       0.00000163 Ry

     iteration #  8     ecut=   600.00 Ry     beta= 0.70
     Davidson diagonalization with overlap

---- Real-time Memory Report at c_bands before calling an iterative solver
           152 MiB given to the printing process from OS
             0 MiB allocation reported by mallinfo(arena+hblkhd)
        343459 MiB available memory on the node where the printing process lives
------------------
     ethr =  3.71E-09,  avg # of iterations =  3.2

     negative rho (up, down):  5.166E-06 0.000E+00

     total cpu time spent up to now is     2922.7 secs

     End of self-consistent calculation

          k = 0.0000 0.0000 0.0000 (269197 PWs)   bands (ev):

   -28.0657 -27.7745 -26.5694 -26.4483 -18.8850 -15.6170 -13.6272 -11.1084
   -10.3510  -9.9217  -8.6617  -8.2305  -7.5762  -7.5276  -7.2361  -5.4030
    -5.2598  -5.1999  -4.5907  -4.3745  -4.0941  -2.8274   0.6622   3.2149
     3.3520   4.3487

     occupation numbers 
     1.0000   1.0000   1.0000   1.0000   1.0000   1.0000   1.0000   1.0000
     1.0000   1.0000   1.0000   1.0000   1.0000   1.0000   1.0000   1.0000
     1.0000   1.0000   1.0000   1.0000   1.0000   1.0000   0.0000   0.0000
     0.0000   0.0000

          k = 0.0000 0.0697 0.0000 (269236 PWs)   bands (ev):

   -28.0339 -27.7501 -26.6086 -26.4843 -18.8238 -15.8358 -13.4439 -11.0669
   -10.2323  -9.9642  -8.6108  -8.2425  -7.6721  -7.4398  -7.2489  -5.4579
    -5.3449  -5.2993  -4.6504  -4.3214  -4.0515  -2.8725   0.8071   3.2411
     3.3462   4.5321

     occupation numbers 
     1.0000   1.0000   1.0000   1.0000   1.0000   1.0000   1.0000   1.0000
     1.0000   1.0000   1.0000   1.0000   1.0000   1.0000   1.0000   1.0000
     1.0000   1.0000   1.0000   1.0000   1.0000   1.0000   0.0000   0.0000
     0.0000   0.0000

          k = 0.0000 0.1394 0.0000 (269256 PWs)   bands (ev):

   -27.9430 -27.6842 -26.7135 -26.5841 -18.6419 -16.3287 -13.0338 -11.0229
   -10.0078  -9.9206  -8.4630  -8.2920  -7.9414  -7.3035  -7.1987  -5.6473
    -5.5851  -5.4017  -4.7786  -4.2882  -3.9360  -2.9954   1.1984   3.3110
     3.3176   5.0455

     occupation numbers 
     1.0000   1.0000   1.0000   1.0000   1.0000   1.0000   1.0000   1.0000
     1.0000   1.0000   1.0000   1.0000   1.0000   1.0000   1.0000   1.0000
     1.0000   1.0000   1.0000   1.0000   1.0000   1.0000   0.0000   0.0000
     0.0000   0.0000

          k = 0.0000 0.2091 0.0000 (269210 PWs)   bands (ev):

   -27.8081 -27.6045 -26.8428 -26.7232 -18.3451 -16.8991 -12.5452 -11.1804
    -9.8444  -9.5224  -8.4128  -8.3412  -8.2335  -7.4372  -6.8606  -5.9610
    -5.6963  -5.5325  -4.8641  -4.3899  -3.7710  -3.1699   1.7409   3.1819
     3.4394   4.1871

     occupation numbers 
     1.0000   1.0000   1.0000   1.0000   1.0000   1.0000   1.0000   1.0000
     1.0000   1.0000   1.0000   1.0000   1.0000   1.0000   1.0000   1.0000
     1.0000   1.0000   1.0000   1.0000   1.0000   1.0000   0.0000   0.0000
     0.0000   0.0000

          k = 0.0000 0.2788 0.0000 (269102 PWs)   bands (ev):

   -27.6635 -27.5779 -26.9143 -26.8578 -17.9434 -17.4528 -12.0380 -11.5584
    -9.4720  -9.2213  -8.7227  -8.6229  -7.9519  -7.6661  -6.5223  -6.2388
    -5.7200  -5.6527  -4.8070  -4.6057  -3.5767  -3.3705   2.3314   2.8544
     3.6047   3.8362

     occupation numbers 
     1.0000   1.0000   1.0000   1.0000   1.0000   1.0000   1.0000   1.0000
     1.0000   1.0000   1.0000   1.0000   1.0000   1.0000   1.0000   1.0000
     1.0000   1.0000   1.0000   1.0000   1.0000   1.0000   0.0000   0.0000
     0.0000   0.0000

          k = 0.1111 0.0000 0.0000 (269215 PWs)   bands (ev):

   -27.9821 -27.7014 -26.5661 -26.4471 -18.7309 -15.4645 -13.5651 -10.9819
   -10.2746  -9.9416  -9.3585  -8.3370  -7.6998  -7.5419  -7.4352  -5.7512
    -5.5483  -5.2971  -4.7138  -4.3977  -4.2629  -3.3579   0.9030   3.9451
     4.1406   4.3385

     occupation numbers 
     1.0000   1.0000   1.0000   1.0000   1.0000   1.0000   1.0000   1.0000
     1.0000   1.0000   1.0000   1.0000   1.0000   1.0000   1.0000   1.0000
     1.0000   1.0000   1.0000   1.0000   1.0000   1.0000   0.0000   0.0000
     0.0000   0.0000

          k = 0.1111 0.0697 0.0000 (269155 PWs)   bands (ev):

   -27.9517 -27.6782 -26.6025 -26.4808 -18.6702 -15.6888 -13.3789 -10.9526
   -10.1762  -9.9855  -9.2975  -8.3641  -7.7148  -7.6403  -7.3505  -5.8310
    -5.5821  -5.2917  -4.7195  -4.3797  -4.2755  -3.4173   1.0287   4.1051
     4.1347   4.3558

     occupation numbers 
     1.0000   1.0000   1.0000   1.0000   1.0000   1.0000   1.0000   1.0000
     1.0000   1.0000   1.0000   1.0000   1.0000   1.0000   1.0000   1.0000
     1.0000   1.0000   1.0000   1.0000   1.0000   1.0000   0.0000   0.0000
     0.0000   0.0000

          k = 0.1111 0.1394 0.0000 (269165 PWs)   bands (ev):

   -27.8646 -27.6153 -26.7004 -26.5743 -18.4901 -16.1873 -12.9719 -10.9444
   -10.0336  -9.9339  -9.1146  -8.4551  -7.8980  -7.7622  -7.1219  -5.9431
    -5.6549  -5.3974  -4.7719  -4.3249  -4.2921  -3.5501   1.3787   4.0564
     4.4027   4.4748

     occupation numbers 
     1.0000   1.0000   1.0000   1.0000   1.0000   1.0000   1.0000   1.0000
     1.0000   1.0000   1.0000   1.0000   1.0000   1.0000   1.0000   1.0000
     1.0000   1.0000   1.0000   1.0000   1.0000   1.0000   0.0000   0.0000
     0.0000   0.0000

          k = 0.1111 0.2091 0.0000 (269184 PWs)   bands (ev):

   -27.7355 -27.5395 -26.8211 -26.7052 -18.1959 -16.7584 -12.4958 -11.1392
    -9.8984  -9.6612  -8.8643  -8.6163  -8.2082  -7.8527  -6.7979  -5.9942
    -5.7229  -5.6452  -4.8443  -4.4638  -4.1396  -3.6816   1.8909   3.7326
     4.4638   4.5706

     occupation numbers 
     1.0000   1.0000   1.0000   1.0000   1.0000   1.0000   1.0000   1.0000
     1.0000   1.0000   1.0000   1.0000   1.0000   1.0000   1.0000   1.0000
     1.0000   1.0000   1.0000   1.0000   1.0000   1.0000   0.0000   0.0000
     0.0000   0.0000

          k = 0.1111 0.2788 0.0000 (269166 PWs)   bands (ev):

   -27.5971 -27.5147 -26.8871 -26.8325 -17.7974 -17.3099 -12.0027 -11.5292
    -9.6170  -9.4847  -8.8277  -8.7984  -8.2323  -8.0137  -6.4472  -6.1283
    -5.8090  -5.7768  -4.8309  -4.6747  -3.9675  -3.8111   2.5002   3.1466
     4.5160   4.5447

     occupation numbers 
     1.0000   1.0000   1.0000   1.0000   1.0000   1.0000   1.0000   1.0000
     1.0000   1.0000   1.0000   1.0000   1.0000   1.0000   1.0000   1.0000
     1.0000   1.0000   1.0000   1.0000   1.0000   1.0000   0.0000   0.0000
     0.0000   0.0000

          k = 0.2222 0.0000 0.0000 (269107 PWs)   bands (ev):

   -27.7500 -27.4988 -26.5740 -26.4588 -18.2716 -15.0136 -13.4965 -10.7104
   -10.6292 -10.1176 -10.0718  -8.7464  -8.6979  -7.6704  -7.1923  -6.2156
    -6.1646  -5.6860  -5.2999  -4.6421  -4.3038  -4.2651   1.4878   3.6492
     5.4609   6.0013

     occupation numbers 
     1.0000   1.0000   1.0000   1.0000   1.0000   1.0000   1.0000   1.0000
     1.0000   1.0000   1.0000   1.0000   1.0000   1.0000   1.0000   1.0000
     1.0000   1.0000   1.0000   1.0000   1.0000   1.0000   0.0000   0.0000
     0.0000   0.0000

          k = 0.2222 0.0697 0.0000 (269106 PWs)   bands (ev):

   -27.7236 -27.4789 -26.6027 -26.4858 -18.2128 -15.2567 -13.3093 -10.6920
   -10.6495 -10.1849  -9.9323  -8.9111  -8.5430  -7.7846  -7.1391  -6.2406
    -6.1585  -5.5769  -5.2346  -4.6404  -4.4152  -4.2970   1.5773   3.8082
     5.4337   6.0058

     occupation numbers 
     1.0000   1.0000   1.0000   1.0000   1.0000   1.0000   1.0000   1.0000
     1.0000   1.0000   1.0000   1.0000   1.0000   1.0000   1.0000   1.0000
     1.0000   1.0000   1.0000   1.0000   1.0000   1.0000   0.0000   0.0000
     0.0000   0.0000

          k = 0.2222 0.1394 0.0000 (269171 PWs)   bands (ev):

   -27.6483 -27.4255 -26.6801 -26.5613 -18.0380 -15.7707 -12.9345 -10.8028
   -10.6193 -10.2749  -9.5931  -9.0749  -8.4006  -8.0543  -6.9843  -6.2360
    -6.1426  -5.4330  -5.0961  -4.6570  -4.6294  -4.3873   1.8428   4.1924
     5.2548   5.8182

     occupation numbers 
     1.0000   1.0000   1.0000   1.0000   1.0000   1.0000   1.0000   1.0000
     1.0000   1.0000   1.0000   1.0000   1.0000   1.0000   1.0000   1.0000
     1.0000   1.0000   1.0000   1.0000   1.0000   1.0000   0.0000   0.0000
     0.0000   0.0000

          k = 0.2222 0.2091 0.0000 (269132 PWs)   bands (ev):

   -27.5371 -27.3621 -26.7753 -26.6682 -17.7522 -16.3422 -12.5186 -11.1661
   -10.4946 -10.2678  -9.2392  -9.1848  -8.3223  -8.3131  -6.7372  -6.1770
    -6.1086  -5.5520  -5.0099  -4.8614  -4.5730  -4.4387   2.2739   4.1893
     5.2271   5.8133

     occupation numbers 
     1.0000   1.0000   1.0000   1.0000   1.0000   1.0000   1.0000   1.0000
     1.0000   1.0000   1.0000   1.0000   1.0000   1.0000   1.0000   1.0000
     1.0000   1.0000   1.0000   1.0000   1.0000   1.0000   0.0000   0.0000
     0.0000   0.0000

          k = 0.2222 0.2788 0.0000 (269210 PWs)   bands (ev):

   -27.4176 -27.3444 -26.8241 -26.7744 -17.3637 -16.8864 -12.0793 -11.6190
   -10.3580 -10.2710  -9.1937  -9.1259  -8.3844  -8.3116  -6.4144  -6.1616
    -6.0473  -5.8849  -5.0100  -4.9797  -4.4793  -4.4347   2.8505   3.5339
     5.6474   5.9105

     occupation numbers 
     1.0000   1.0000   1.0000   1.0000   1.0000   1.0000   1.0000   1.0000
     1.0000   1.0000   1.0000   1.0000   1.0000   1.0000   1.0000   1.0000
     1.0000   1.0000   1.0000   1.0000   1.0000   1.0000   0.0000   0.0000
     0.0000   0.0000

          k = 0.3333 0.0000 0.0000 (268961 PWs)   bands (ev):

   -27.4230 -27.2139 -26.6382 -26.5212 -17.5163 -14.2847 -13.9918 -11.4884
   -10.9187 -10.2164  -9.8194  -9.3617  -9.3138  -8.0230  -7.0806  -6.4548
    -6.3931  -6.3636  -5.9071  -4.9562  -4.7987  -4.5834   2.2405   3.8296
     5.4251   6.8429

     occupation numbers 
     1.0000   1.0000   1.0000   1.0000   1.0000   1.0000   1.0000   1.0000
     1.0000   1.0000   1.0000   1.0000   1.0000   1.0000   1.0000   1.0000
     1.0000   1.0000   1.0000   1.0000   1.0000   1.0000   0.0000   0.0000
     0.0000   0.0000

          k = 0.3333 0.0697 0.0000 (268947 PWs)   bands (ev):

   -27.4038 -27.2001 -26.6553 -26.5383 -17.4609 -14.6024 -13.7977 -11.3815
   -11.1148 -10.2490  -9.7479  -9.5086  -9.0405  -8.1411  -6.9914  -6.5252
    -6.4225  -6.2028  -5.7659  -5.1001  -4.7713  -4.5503   2.3008   3.9319
     5.3809   6.8100

     occupation numbers 
     1.0000   1.0000   1.0000   1.0000   1.0000   1.0000   1.0000   1.0000
     1.0000   1.0000   1.0000   1.0000   1.0000   1.0000   1.0000   1.0000
     1.0000   1.0000   1.0000   1.0000   1.0000   1.0000   0.0000   0.0000
     0.0000   0.0000

          k = 0.3333 0.1394 0.0000 (269068 PWs)   bands (ev):

   -27.3492 -27.1637 -26.7011 -26.5864 -17.2959 -15.1232 -13.5562 -11.5533
   -11.1497 -10.3504  -9.5900  -9.5681  -8.7197  -8.3343  -6.8396  -6.5714
    -6.3984  -5.9148  -5.5203  -5.3616  -4.7056  -4.5714   2.4914   4.1873
     5.2329   6.1148

     occupation numbers 
     1.0000   1.0000   1.0000   1.0000   1.0000   1.0000   1.0000   1.0000
     1.0000   1.0000   1.0000   1.0000   1.0000   1.0000   1.0000   1.0000
     1.0000   1.0000   1.0000   1.0000   1.0000   1.0000   0.0000   0.0000
     0.0000   0.0000

          k = 0.3333 0.2091 0.0000 (269137 PWs)   bands (ev):

   -27.2689 -27.1236 -26.7551 -26.6562 -17.0251 -15.6770 -13.2842 -12.0555
   -10.9167 -10.4688  -9.5962  -9.5076  -8.4656  -8.3895  -6.7497  -6.4284
    -6.4135  -5.6410  -5.5720  -5.3479  -4.6526  -4.6432   2.8323   4.3147
     5.0792   5.7115

     occupation numbers 
     1.0000   1.0000   1.0000   1.0000   1.0000   1.0000   1.0000   1.0000
     1.0000   1.0000   1.0000   1.0000   1.0000   1.0000   1.0000   1.0000
     1.0000   1.0000   1.0000   1.0000   1.0000   1.0000   0.0000   0.0000
     0.0000   0.0000

          k = 0.3333 0.2788 0.0000 (269147 PWs)   bands (ev):

   -27.1815 -27.1214 -26.7735 -26.7297 -16.6558 -16.1997 -12.9466 -12.5330
   -10.7282 -10.5862  -9.5971  -9.5506  -8.3299  -8.3277  -6.6577  -6.5247
    -6.1425  -5.8346  -5.4120  -5.3169  -4.6683  -4.6312   3.3256   3.9053
     5.2112   5.4239

     occupation numbers 
     1.0000   1.0000   1.0000   1.0000   1.0000   1.0000   1.0000   1.0000
     1.0000   1.0000   1.0000   1.0000   1.0000   1.0000   1.0000   1.0000
     1.0000   1.0000   1.0000   1.0000   1.0000   1.0000   0.0000   0.0000
     0.0000   0.0000

          k = 0.4444 0.0000 0.0000 (269044 PWs)   bands (ev):

   -27.0809 -26.9153 -26.8042 -26.6714 -16.4827 -15.2242 -13.3116 -12.1464
   -11.2268 -10.5788  -9.6156  -9.4856  -9.1747  -8.5603  -7.2079  -6.9657
    -6.3926  -6.2676  -6.0550  -5.5194  -4.9003  -4.8445   3.1350   4.2239
     4.5176   5.6301

     occupation numbers 
     1.0000   1.0000   1.0000   1.0000   1.0000   1.0000   1.0000   1.0000
     1.0000   1.0000   1.0000   1.0000   1.0000   1.0000   1.0000   1.0000
     1.0000   1.0000   1.0000   1.0000   1.0000   1.0000   0.0000   0.0000
     0.0000   0.0000

          k = 0.4444 0.0697 0.0000 (268991 PWs)   bands (ev):

   -27.0722 -26.9113 -26.8067 -26.6767 -16.4329 -15.1916 -13.5123 -12.3668
   -11.0889 -10.4877  -9.6452  -9.6312  -8.9846  -8.5823  -7.0739  -6.8402
    -6.4652  -6.4337  -5.8728  -5.5724  -4.8484  -4.7780   3.1771   4.2448
     4.5216   5.4950

     occupation numbers 
     1.0000   1.0000   1.0000   1.0000   1.0000   1.0000   1.0000   1.0000
     1.0000   1.0000   1.0000   1.0000   1.0000   1.0000   1.0000   1.0000
     1.0000   1.0000   1.0000   1.0000   1.0000   1.0000   0.0000   0.0000
     0.0000   0.0000

          k = 0.4444 0.1394 0.0000 (269081 PWs)   bands (ev):

   -27.0479 -26.9044 -26.8104 -26.6923 -16.2848 -15.1132 -13.9295 -12.8424
   -10.8417 -10.3890  -9.8321  -9.7091  -8.6856  -8.5347  -6.7792  -6.6892
    -6.5747  -6.5090  -5.6621  -5.6108  -4.7425  -4.6975   3.3125   4.2736
     4.5878   5.2421

     occupation numbers 
     1.0000   1.0000   1.0000   1.0000   1.0000   1.0000   1.0000   1.0000
     1.0000   1.0000   1.0000   1.0000   1.0000   1.0000   1.0000   1.0000
     1.0000   1.0000   1.0000   1.0000   1.0000   1.0000   0.0000   0.0000
     0.0000   0.0000

          k = 0.4444 0.2091 0.0000 (269092 PWs)   bands (ev):

   -27.0123 -26.9094 -26.8030 -26.7167 -16.0433 -15.1045 -14.2442 -13.3621
   -10.6584 -10.4133  -9.9195  -9.8318  -8.4224  -8.3832  -6.8779  -6.7490
    -6.3763  -6.1121  -5.5995  -5.5268  -4.6977  -4.6771   3.5469   4.2102
     4.8167   5.0633

     occupation numbers 
     1.0000   1.0000   1.0000   1.0000   1.0000   1.0000   1.0000   1.0000
     1.0000   1.0000   1.0000   1.0000   1.0000   1.0000   1.0000   1.0000
     1.0000   1.0000   1.0000   1.0000   1.0000   1.0000   0.0000   0.0000
     0.0000   0.0000

          k = 0.4444 0.2788 0.0000 (269089 PWs)   bands (ev):

   -26.9719 -26.9345 -26.7789 -26.7473 -15.7211 -15.3587 -14.1702 -13.8277
   -10.5561 -10.4861  -9.9414  -9.9179  -8.2712  -8.2638  -6.9388  -6.8900
    -5.9966  -5.7941  -5.6507  -5.5304  -4.7185  -4.6899   3.8290   4.0605
     5.0352   5.0379

     occupation numbers 
     1.0000   1.0000   1.0000   1.0000   1.0000   1.0000   1.0000   1.0000
     1.0000   1.0000   1.0000   1.0000   1.0000   1.0000   1.0000   1.0000
     1.0000   1.0000   1.0000   1.0000   1.0000   1.0000   0.0000   0.0000
     0.0000   0.0000

     the Fermi energy is    -1.8163 ev

!    total energy              =    -240.24581991 Ry
     estimated scf accuracy    <       0.00000051 Ry
     smearing contrib. (-TS)   =       0.00000000 Ry
     internal energy E=F+TS    =    -240.24581991 Ry

     The total energy is F=E-TS. E is the sum of the following terms:
     one-electron contribution =   -1255.10601987 Ry
     hartree contribution      =     641.32809012 Ry
     xc contribution           =     -51.65205356 Ry
     ewald contribution        =     425.18416340 Ry

     convergence has been achieved in   8 iterations

     negative rho (up, down):  5.166E-06 0.000E+00

     Forces acting on atoms (cartesian axes, Ry/au):

     atom    1 type  1   force =     0.00000000   -0.00586753    0.01232732
     atom    2 type  1   force =     0.00000000   -0.00586753   -0.01232732
     atom    3 type  1   force =     0.00000000    0.00586753    0.01232732
     atom    4 type  1   force =     0.00000000    0.00586753   -0.01232732
     atom    5 type  2   force =     0.00000000   -0.01671959    0.00939572
     atom    6 type  2   force =     0.00000000   -0.01671959   -0.00939572
     atom    7 type  2   force =     0.00000000    0.01671959    0.00939572
     atom    8 type  2   force =     0.00000000    0.01671959   -0.00939572
     The non-local contrib.  to forces
     atom    1 type  1   force =     0.00000000   -0.16338106    0.36484829
     atom    2 type  1   force =     0.00000000   -0.16338106   -0.36484829
     atom    3 type  1   force =     0.00000000    0.16338106    0.36484829
     atom    4 type  1   force =     0.00000000    0.16338106   -0.36484829
     atom    5 type  2   force =     0.00000000   -1.01222640    2.22903831
     atom    6 type  2   force =     0.00000000   -1.01222640   -2.22903831
     atom    7 type  2   force =     0.00000000    1.01222640    2.22903831
     atom    8 type  2   force =     0.00000000    1.01222640   -2.22903831
     The ionic contribution  to forces
     atom    1 type  1   force =     0.00000000    0.99589840    2.93460559
     atom    2 type  1   force =     0.00000000    0.99589840   -2.93460559
     atom    3 type  1   force =    -0.00000000   -0.99589840    2.93460559
     atom    4 type  1   force =    -0.00000000   -0.99589840   -2.93460559
     atom    5 type  2   force =     0.00000000    3.81292187  -44.32242841
     atom    6 type  2   force =    -0.00000000    3.81292187   44.32242841
     atom    7 type  2   force =    -0.00000000   -3.81292187  -44.32242841
     atom    8 type  2   force =     0.00000000   -3.81292187   44.32242841
     The local contribution  to forces
     atom    1 type  1   force =     0.00000000   -0.83945421   -3.28391273
     atom    2 type  1   force =     0.00000000   -0.83945421    3.28391273
     atom    3 type  1   force =     0.00000000    0.83945421   -3.28391273
     atom    4 type  1   force =     0.00000000    0.83945421    3.28391273
     atom    5 type  2   force =     0.00000000   -2.81702934   42.10119524
     atom    6 type  2   force =     0.00000000   -2.81702934  -42.10119524
     atom    7 type  2   force =     0.00000000    2.81702934   42.10119524
     atom    8 type  2   force =     0.00000000    2.81702934  -42.10119524
     The core correction contribution to forces
     atom    1 type  1   force =    -0.00000000    0.00100234   -0.00280991
     atom    2 type  1   force =    -0.00000000    0.00100234    0.00280991
     atom    3 type  1   force =     0.00000000   -0.00100234   -0.00280991
     atom    4 type  1   force =     0.00000000   -0.00100234    0.00280991
     atom    5 type  2   force =     0.00000000    0.00000000    0.00000000
     atom    6 type  2   force =     0.00000000    0.00000000    0.00000000
     atom    7 type  2   force =     0.00000000    0.00000000    0.00000000
     atom    8 type  2   force =     0.00000000    0.00000000    0.00000000
     The Hubbard contrib.    to forces
     atom    1 type  1   force =     0.00000000    0.00000000    0.00000000
     atom    2 type  1   force =     0.00000000    0.00000000    0.00000000
     atom    3 type  1   force =     0.00000000    0.00000000    0.00000000
     atom    4 type  1   force =     0.00000000    0.00000000    0.00000000
     atom    5 type  2   force =     0.00000000    0.00000000    0.00000000
     atom    6 type  2   force =     0.00000000    0.00000000    0.00000000
     atom    7 type  2   force =     0.00000000    0.00000000    0.00000000
     atom    8 type  2   force =     0.00000000    0.00000000    0.00000000
     The SCF correction term to forces
     atom    1 type  1   force =    -0.00000000    0.00006700   -0.00040392
     atom    2 type  1   force =    -0.00000000    0.00006700    0.00040392
     atom    3 type  1   force =     0.00000000   -0.00006700   -0.00040392
     atom    4 type  1   force =    -0.00000000   -0.00006700    0.00040392
     atom    5 type  2   force =    -0.00000000   -0.00000000    0.00159058
     atom    6 type  2   force =     0.00000000   -0.00000000   -0.00159058
     atom    7 type  2   force =    -0.00000000    0.00000000    0.00159058
     atom    8 type  2   force =    -0.00000000    0.00000000   -0.00159058

     Total force =     0.033146     Total SCF correction =     0.003285


     Computing stress (Cartesian axis) and pressure


     negative rho (up, down):  5.166E-06 0.000E+00
          total   stress  (Ry/bohr**3)                   (kbar)     P=       -6.86
  -0.00001274   0.00000000   0.00000000           -1.87        0.00        0.00
   0.00000000  -0.00005924   0.00000000            0.00       -8.71        0.00
   0.00000000   0.00000000  -0.00006788            0.00        0.00       -9.99

     kinetic stress (kbar)   9125.99      0.00      0.00
                                0.00   8929.34      0.00
                                0.00      0.00   8311.13

     local   stress (kbar)-160955.10     -0.00     -0.00
                               -0.00-162430.90      0.00
                               -0.00      0.00 155653.85

     nonloc. stress (kbar)   1181.35      0.00      0.00
                                0.00   1135.46      0.00
                                0.00      0.00    971.58

     hartree stress (kbar)  80742.29     -0.00      0.00
                               -0.00  81171.84      0.00
                                0.00      0.00 -74912.06

     exc-cor stress (kbar)  -2140.12      0.00     -0.00
                                0.00  -2135.81     -0.00
                               -0.00     -0.00  -2130.10

     corecor stress (kbar)    -73.61      0.00      0.00
                                0.00    -73.44     -0.00
                                0.00      0.00    -72.43

     ewald   stress (kbar)  72117.32     -0.00      0.00
                               -0.00  73394.79      0.00
                                0.00      0.00 -87831.96

     hubbard stress (kbar)      0.00      0.00      0.00
                                0.00      0.00      0.00
                                0.00      0.00      0.00

     DFT-D   stress (kbar)      0.00      0.00      0.00
                                0.00      0.00      0.00
                                0.00      0.00      0.00

     XDM     stress (kbar)      0.00      0.00      0.00
                                0.00      0.00      0.00
                                0.00      0.00      0.00

     dft-nl  stress (kbar)      0.00      0.00      0.00
                                0.00      0.00      0.00
                                0.00      0.00      0.00

     TS-vdW  stress (kbar)      0.00      0.00      0.00
                                0.00      0.00      0.00
                                0.00      0.00      0.00

     MDB     stress (kbar)      0.00      0.00      0.00
                                0.00      0.00      0.00
                                0.00      0.00      0.00

     3D-RISM stress (kbar)      0.00      0.00      0.00
                                0.00      0.00      0.00
                                0.00      0.00      0.00


     BFGS Geometry Optimization
     Energy error            =      0.0E+00 Ry
     Gradient error          =      1.2E-02 Ry/Bohr
     Cell gradient error     =      8.7E+00 kbar

     number of scf cycles    =   1
     number of bfgs steps    =   0

     enthalpy           new  =    -240.2458199107 Ry

     new trust radius        =       0.0136525005 bohr
     new conv_thr            =       0.0000010000 Ry

     new unit-cell volume =   1082.42122 a.u.^3 (   160.39828 Ang^3 )
     density =      1.28410 g/cm^3

CELL_PARAMETERS (angstrom)
   2.629169297   0.000000000   0.000000000
   0.000000000   4.186653702   0.000000000
   0.000000000   0.000000000  14.571830239

ATOMIC_POSITIONS (crystal)
C             0.5000000000        0.1407992078        0.0354116671    0   1   1
C             0.0000000000        0.6407992078       -0.0354116671    0   1   1
C             0.0000000000        0.3592007922        0.0354116671    0   1   1
C             0.5000000000        0.8592007922       -0.0354116671    0   1   1
F             0.5000000000        0.0000000000       -0.1209462494    0   0   1
F             0.0000000000        0.5000000000        0.1209462494    0   0   1
F             0.0000000000        0.5000000000       -0.1209462494    0   0   1
F             0.5000000000        0.0000000000        0.1209462494    0   0   1



     Writing config-only to output data dir ../tmp/fgz.save/
     NEW-OLD atomic charge density approx. for the potential

     negative rho (up, down):  7.357E-04 0.000E+00
     extrapolated charge   43.92070, renormalised to   44.00000

     total cpu time spent up to now is     3046.6 secs

     Self-consistent Calculation

     iteration #  1     ecut=   600.00 Ry     beta= 0.70
     Davidson diagonalization with overlap

---- Real-time Memory Report at c_bands before calling an iterative solver
           185 MiB given to the printing process from OS
             0 MiB allocation reported by mallinfo(arena+hblkhd)
        343330 MiB available memory on the node where the printing process lives
------------------
     ethr =  1.00E-06,  avg # of iterations =  7.7

     negative rho (up, down):  1.893E-04 0.000E+00

     total cpu time spent up to now is     3745.2 secs

     total energy              =    -240.24346881 Ry
     estimated scf accuracy    <       0.00213923 Ry

     iteration #  2     ecut=   600.00 Ry     beta= 0.70
     Davidson diagonalization with overlap

---- Real-time Memory Report at c_bands before calling an iterative solver
           185 MiB given to the printing process from OS
             0 MiB allocation reported by mallinfo(arena+hblkhd)
        343329 MiB available memory on the node where the printing process lives
------------------
     ethr =  4.86E-06,  avg # of iterations =  6.7

     negative rho (up, down):  1.219E-04 0.000E+00

     total cpu time spent up to now is     4325.5 secs

     total energy              =    -240.24582096 Ry
     estimated scf accuracy    <       0.00336360 Ry

     iteration #  3     ecut=   600.00 Ry     beta= 0.70
     Davidson diagonalization with overlap

---- Real-time Memory Report at c_bands before calling an iterative solver
           185 MiB given to the printing process from OS
             0 MiB allocation reported by mallinfo(arena+hblkhd)
        343316 MiB available memory on the node where the printing process lives
------------------
     ethr =  4.86E-06,  avg # of iterations =  4.0

     negative rho (up, down):  8.555E-05 0.000E+00

     total cpu time spent up to now is     4717.5 secs

     total energy              =    -240.24623817 Ry
     estimated scf accuracy    <       0.00034740 Ry

     iteration #  4     ecut=   600.00 Ry     beta= 0.70
     Davidson diagonalization with overlap

---- Real-time Memory Report at c_bands before calling an iterative solver
           185 MiB given to the printing process from OS
             0 MiB allocation reported by mallinfo(arena+hblkhd)
        343287 MiB available memory on the node where the printing process lives
------------------
     ethr =  7.90E-07,  avg # of iterations =  2.2

     negative rho (up, down):  7.099E-06 0.000E+00

     total cpu time spent up to now is     4977.2 secs

     total energy              =    -240.24627714 Ry
     estimated scf accuracy    <       0.00013862 Ry

     iteration #  5     ecut=   600.00 Ry     beta= 0.70
     Davidson diagonalization with overlap

---- Real-time Memory Report at c_bands before calling an iterative solver
           185 MiB given to the printing process from OS
             0 MiB allocation reported by mallinfo(arena+hblkhd)
        343294 MiB available memory on the node where the printing process lives
------------------
     ethr =  3.15E-07,  avg # of iterations =  3.8

     negative rho (up, down):  5.281E-06 0.000E+00

     total cpu time spent up to now is     5360.2 secs

     total energy              =    -240.24631926 Ry
     estimated scf accuracy    <       0.00000326 Ry

     iteration #  6     ecut=   600.00 Ry     beta= 0.70
     Davidson diagonalization with overlap

---- Real-time Memory Report at c_bands before calling an iterative solver
           185 MiB given to the printing process from OS
             0 MiB allocation reported by mallinfo(arena+hblkhd)
        343303 MiB available memory on the node where the printing process lives
------------------
     ethr =  7.42E-09,  avg # of iterations =  3.5

     negative rho (up, down):  5.099E-06 0.000E+00

     total cpu time spent up to now is     5714.8 secs

     total energy              =    -240.24631882 Ry
     estimated scf accuracy    <       0.00000215 Ry

     iteration #  7     ecut=   600.00 Ry     beta= 0.70
     Davidson diagonalization with overlap

---- Real-time Memory Report at c_bands before calling an iterative solver
           185 MiB given to the printing process from OS
             0 MiB allocation reported by mallinfo(arena+hblkhd)
        343306 MiB available memory on the node where the printing process lives
------------------
     ethr =  4.88E-09,  avg # of iterations =  2.0

     negative rho (up, down):  5.106E-06 0.000E+00

     total cpu time spent up to now is     5974.9 secs

     End of self-consistent calculation

          k = 0.0000 0.0000 0.0000 (269197 PWs)   bands (ev):

   -28.1647 -27.8806 -26.6673 -26.5476 -18.7644 -15.5289 -13.5314 -11.1409
   -10.3433  -9.9696  -8.6409  -8.2782  -7.6201  -7.5466  -7.2777  -5.4520
    -5.3065  -5.2445  -4.5971  -4.2649  -4.0045  -2.6838   0.8476   3.3233
     3.4720   4.4457

     occupation numbers 
     1.0000   1.0000   1.0000   1.0000   1.0000   1.0000   1.0000   1.0000
     1.0000   1.0000   1.0000   1.0000   1.0000   1.0000   1.0000   1.0000
     1.0000   1.0000   1.0000   1.0000   1.0000   1.0000   0.0000   0.0000
     0.0000   0.0000

          k = 0.0000 0.0698 0.0000 (269236 PWs)   bands (ev):

   -28.1331 -27.8563 -26.7062 -26.5836 -18.7029 -15.7384 -13.3629 -11.0944
   -10.2244 -10.0149  -8.5908  -8.2893  -7.7175  -7.4570  -7.2881  -5.5058
    -5.3827  -5.3459  -4.6527  -4.2198  -3.9614  -2.7318   0.9954   3.3500
     3.4672   4.6266

     occupation numbers 
     1.0000   1.0000   1.0000   1.0000   1.0000   1.0000   1.0000   1.0000
     1.0000   1.0000   1.0000   1.0000   1.0000   1.0000   1.0000   1.0000
     1.0000   1.0000   1.0000   1.0000   1.0000   1.0000   0.0000   0.0000
     0.0000   0.0000

          k = 0.0000 0.1396 0.0000 (269256 PWs)   bands (ev):

   -28.0427 -27.7904 -26.8105 -26.6832 -18.5206 -16.2184 -12.9786 -11.0347
   -10.0680  -9.9153  -8.4456  -8.3357  -7.9894  -7.3349  -7.2142  -5.6810
    -5.6317  -5.4489  -4.7683  -4.1941  -3.8434  -2.8621   1.3953   3.4284
     3.4376   5.1340

     occupation numbers 
     1.0000   1.0000   1.0000   1.0000   1.0000   1.0000   1.0000   1.0000
     1.0000   1.0000   1.0000   1.0000   1.0000   1.0000   1.0000   1.0000
     1.0000   1.0000   1.0000   1.0000   1.0000   1.0000   0.0000   0.0000
     0.0000   0.0000

          k = 0.0000 0.2094 0.0000 (269210 PWs)   bands (ev):

   -27.9089 -27.7107 -26.9390 -26.8220 -18.2232 -16.7812 -12.5112 -11.1778
    -9.9099  -9.5266  -8.4504  -8.3918  -8.2208  -7.4561  -6.8793  -5.9962
    -5.7437  -5.5809  -4.8320  -4.3004  -3.6733  -3.0462   1.9499   3.3299
     3.5557   4.4100

     occupation numbers 
     1.0000   1.0000   1.0000   1.0000   1.0000   1.0000   1.0000   1.0000
     1.0000   1.0000   1.0000   1.0000   1.0000   1.0000   1.0000   1.0000
     1.0000   1.0000   1.0000   1.0000   1.0000   1.0000   0.0000   0.0000
     0.0000   0.0000

          k = 0.0000 0.2792 0.0000 (269102 PWs)   bands (ev):

   -27.7662 -27.6830 -27.0107 -26.9556 -17.8213 -17.3315 -12.0183 -11.5481
    -9.5317  -9.2513  -8.7644  -8.6525  -7.9465  -7.6714  -6.5508  -6.2742
    -5.7691  -5.7022  -4.7474  -4.5255  -3.4718  -3.2567   2.5456   3.0457
     3.7378   4.0126

     occupation numbers 
     1.0000   1.0000   1.0000   1.0000   1.0000   1.0000   1.0000   1.0000
     1.0000   1.0000   1.0000   1.0000   1.0000   1.0000   1.0000   1.0000
     1.0000   1.0000   1.0000   1.0000   1.0000   1.0000   0.0000   0.0000
     0.0000   0.0000

          k = 0.1111 0.0000 0.0000 (269215 PWs)   bands (ev):

   -28.0815 -27.8076 -26.6642 -26.5467 -18.6103 -15.3772 -13.4706 -11.0141
   -10.2690  -9.9888  -9.3276  -8.3826  -7.7322  -7.5831  -7.4551  -5.7849
    -5.5912  -5.3386  -4.7103  -4.3327  -4.1659  -3.2289   1.0919   4.0722
     4.2762   4.4506

     occupation numbers 
     1.0000   1.0000   1.0000   1.0000   1.0000   1.0000   1.0000   1.0000
     1.0000   1.0000   1.0000   1.0000   1.0000   1.0000   1.0000   1.0000
     1.0000   1.0000   1.0000   1.0000   1.0000   1.0000   0.0000   0.0000
     0.0000   0.0000

          k = 0.1111 0.0698 0.0000 (269155 PWs)   bands (ev):

   -28.0512 -27.7843 -26.7005 -26.5804 -18.5495 -15.5923 -13.2989 -10.9797
   -10.1703 -10.0356  -9.2684  -8.4077  -7.7451  -7.6826  -7.3687  -5.8656
    -5.6226  -5.3358  -4.7199  -4.3082  -4.1778  -3.2897   1.2206   4.2381
     4.2707   4.4683

     occupation numbers 
     1.0000   1.0000   1.0000   1.0000   1.0000   1.0000   1.0000   1.0000
     1.0000   1.0000   1.0000   1.0000   1.0000   1.0000   1.0000   1.0000
     1.0000   1.0000   1.0000   1.0000   1.0000   1.0000   0.0000   0.0000
     0.0000   0.0000

          k = 0.1111 0.1396 0.0000 (269165 PWs)   bands (ev):

   -27.9646 -27.7214 -26.7978 -26.6738 -18.3690 -16.0780 -12.9170 -10.9559
   -10.0927  -9.9292  -9.0928  -8.4929  -7.9406  -7.7874  -7.1384  -5.9813
    -5.6909  -5.4415  -4.7698  -4.2298  -4.2130  -3.4281   1.5792   4.2140
     4.5168   4.6319

     occupation numbers 
     1.0000   1.0000   1.0000   1.0000   1.0000   1.0000   1.0000   1.0000
     1.0000   1.0000   1.0000   1.0000   1.0000   1.0000   1.0000   1.0000
     1.0000   1.0000   1.0000   1.0000   1.0000   1.0000   0.0000   0.0000
     0.0000   0.0000

          k = 0.1111 0.2094 0.0000 (269184 PWs)   bands (ev):

   -27.8365 -27.6456 -26.9178 -26.8043 -18.0744 -16.6415 -12.4618 -11.1374
    -9.9601  -9.6622  -8.8660  -8.6462  -8.2386  -7.8708  -6.8166  -6.0335
    -5.7572  -5.6870  -4.8244  -4.3757  -4.0551  -3.5697   2.1045   3.9412
     4.5817   4.7448

     occupation numbers 
     1.0000   1.0000   1.0000   1.0000   1.0000   1.0000   1.0000   1.0000
     1.0000   1.0000   1.0000   1.0000   1.0000   1.0000   1.0000   1.0000
     1.0000   1.0000   1.0000   1.0000   1.0000   1.0000   0.0000   0.0000
     0.0000   0.0000

          k = 0.1111 0.2792 0.0000 (269166 PWs)   bands (ev):

   -27.6999 -27.6199 -26.9839 -26.9307 -17.6759 -17.1895 -11.9833 -11.5196
    -9.6670  -9.5036  -8.8662  -8.8259  -8.2326  -8.0215  -6.4723  -6.1592
    -5.8545  -5.8165  -4.7818  -4.6000  -3.8758  -3.7102   2.7275   3.3793
     4.6422   4.6872

     occupation numbers 
     1.0000   1.0000   1.0000   1.0000   1.0000   1.0000   1.0000   1.0000
     1.0000   1.0000   1.0000   1.0000   1.0000   1.0000   1.0000   1.0000
     1.0000   1.0000   1.0000   1.0000   1.0000   1.0000   0.0000   0.0000
     0.0000   0.0000

          k = 0.2223 0.0000 0.0000 (269107 PWs)   bands (ev):

   -27.8501 -27.6047 -26.6731 -26.5593 -18.1516 -14.9295 -13.4041 -10.6607
   -10.6591 -10.1555 -10.0729  -8.7844  -8.7148  -7.7122  -7.2184  -6.2443
    -6.1940  -5.7118  -5.2745  -4.6188  -4.2097  -4.1772   1.6856   3.7942
     5.6568   6.0128

     occupation numbers 
     1.0000   1.0000   1.0000   1.0000   1.0000   1.0000   1.0000   1.0000
     1.0000   1.0000   1.0000   1.0000   1.0000   1.0000   1.0000   1.0000
     1.0000   1.0000   1.0000   1.0000   1.0000   1.0000   0.0000   0.0000
     0.0000   0.0000

          k = 0.2223 0.0698 0.0000 (269106 PWs)   bands (ev):

   -27.8239 -27.5849 -26.7017 -26.5863 -18.0928 -15.1632 -13.2301 -10.6728
   -10.6482 -10.2252  -9.9300  -8.9333  -8.5750  -7.8273  -7.1640  -6.2724
    -6.1838  -5.6065  -5.2127  -4.6132  -4.3300  -4.1975   1.7775   3.9569
     5.6296   6.0478

     occupation numbers 
     1.0000   1.0000   1.0000   1.0000   1.0000   1.0000   1.0000   1.0000
     1.0000   1.0000   1.0000   1.0000   1.0000   1.0000   1.0000   1.0000
     1.0000   1.0000   1.0000   1.0000   1.0000   1.0000   0.0000   0.0000
     0.0000   0.0000

          k = 0.2223 0.1396 0.0000 (269171 PWs)   bands (ev):

   -27.7490 -27.5315 -26.7786 -26.6618 -17.9179 -15.6650 -12.8767 -10.8093
   -10.5854 -10.3188  -9.5915  -9.0942  -8.4350  -8.0968  -7.0063  -6.2717
    -6.1604  -5.4745  -5.0845  -4.5871  -4.5768  -4.2778   2.0503   4.3681
     5.4312   5.9634

     occupation numbers 
     1.0000   1.0000   1.0000   1.0000   1.0000   1.0000   1.0000   1.0000
     1.0000   1.0000   1.0000   1.0000   1.0000   1.0000   1.0000   1.0000
     1.0000   1.0000   1.0000   1.0000   1.0000   1.0000   0.0000   0.0000
     0.0000   0.0000

          k = 0.2223 0.2094 0.0000 (269132 PWs)   bands (ev):

   -27.6387 -27.4680 -26.8733 -26.7683 -17.6321 -16.2288 -12.4790 -11.1617
   -10.4710 -10.3000  -9.2538  -9.2098  -8.3561  -8.3443  -6.7553  -6.2099
    -6.1227  -5.5908  -5.0081  -4.8001  -4.5072  -4.3297   2.4929   4.4523
     5.3140   5.9802

     occupation numbers 
     1.0000   1.0000   1.0000   1.0000   1.0000   1.0000   1.0000   1.0000
     1.0000   1.0000   1.0000   1.0000   1.0000   1.0000   1.0000   1.0000
     1.0000   1.0000   1.0000   1.0000   1.0000   1.0000   0.0000   0.0000
     0.0000   0.0000

          k = 0.2223 0.2792 0.0000 (269210 PWs)   bands (ev):

   -27.5207 -27.4494 -26.9222 -26.8737 -17.2443 -16.7689 -12.0538 -11.6048
   -10.3481 -10.2814  -9.2307  -9.1648  -8.4037  -8.3353  -6.4263  -6.1763
    -6.0699  -5.9204  -4.9971  -4.9427  -4.3983  -4.3404   3.0844   3.7844
     5.7689   6.0529

     occupation numbers 
     1.0000   1.0000   1.0000   1.0000   1.0000   1.0000   1.0000   1.0000
     1.0000   1.0000   1.0000   1.0000   1.0000   1.0000   1.0000   1.0000
     1.0000   1.0000   1.0000   1.0000   1.0000   1.0000   0.0000   0.0000
     0.0000   0.0000

          k = 0.3334 0.0000 0.0000 (268961 PWs)   bands (ev):

   -27.5240 -27.3193 -26.7386 -26.6231 -17.3983 -14.2075 -13.8953 -11.4361
   -10.9138 -10.2286  -9.8322  -9.4005  -9.3435  -8.0675  -7.1245  -6.4527
    -6.4210  -6.3706  -5.8932  -4.9160  -4.7712  -4.4935   2.4455   3.9839
     5.6439   6.9831

     occupation numbers 
     1.0000   1.0000   1.0000   1.0000   1.0000   1.0000   1.0000   1.0000
     1.0000   1.0000   1.0000   1.0000   1.0000   1.0000   1.0000   1.0000
     1.0000   1.0000   1.0000   1.0000   1.0000   1.0000   0.0000   0.0000
     0.0000   0.0000

          k = 0.3334 0.0698 0.0000 (268947 PWs)   bands (ev):

   -27.5050 -27.3055 -26.7556 -26.6401 -17.3430 -14.5114 -13.7147 -11.3352
   -11.1027 -10.2681  -9.7612  -9.5383  -9.0778  -8.1848  -7.0326  -6.5197
    -6.4508  -6.2070  -5.7572  -5.0619  -4.7406  -4.4624   2.5075   4.0888
     5.5960   6.7631

     occupation numbers 
     1.0000   1.0000   1.0000   1.0000   1.0000   1.0000   1.0000   1.0000
     1.0000   1.0000   1.0000   1.0000   1.0000   1.0000   1.0000   1.0000
     1.0000   1.0000   1.0000   1.0000   1.0000   1.0000   0.0000   0.0000
     0.0000   0.0000

          k = 0.3334 0.1396 0.0000 (269068 PWs)   bands (ev):

   -27.4507 -27.2692 -26.8011 -26.6882 -17.1784 -15.0226 -13.4830 -11.5297
   -11.1177 -10.3746  -9.6093  -9.5968  -8.7584  -8.3724  -6.8669  -6.5699
    -6.4240  -5.9127  -5.5199  -5.3405  -4.6652  -4.4808   2.7033   4.3609
     5.4230   6.2680

     occupation numbers 
     1.0000   1.0000   1.0000   1.0000   1.0000   1.0000   1.0000   1.0000
     1.0000   1.0000   1.0000   1.0000   1.0000   1.0000   1.0000   1.0000
     1.0000   1.0000   1.0000   1.0000   1.0000   1.0000   0.0000   0.0000
     0.0000   0.0000

          k = 0.3334 0.2094 0.0000 (269137 PWs)   bands (ev):

   -27.3710 -27.2290 -26.8549 -26.7578 -16.9087 -15.5699 -13.2202 -12.0210
   -10.8999 -10.4894  -9.6287  -9.5410  -8.5029  -8.4182  -6.7475  -6.4460
    -6.4210  -5.6181  -5.6029  -5.3557  -4.5884  -4.5582   3.0532   4.5568
     5.1896   5.8598

     occupation numbers 
     1.0000   1.0000   1.0000   1.0000   1.0000   1.0000   1.0000   1.0000
     1.0000   1.0000   1.0000   1.0000   1.0000   1.0000   1.0000   1.0000
     1.0000   1.0000   1.0000   1.0000   1.0000   1.0000   0.0000   0.0000
     0.0000   0.0000

          k = 0.3334 0.2792 0.0000 (269147 PWs)   bands (ev):

   -27.2845 -27.2259 -26.8737 -26.8307 -16.5412 -16.0881 -12.8921 -12.4883
   -10.7255 -10.5968  -9.6351  -9.5912  -8.3634  -8.3560  -6.6436  -6.5134
    -6.1659  -5.8578  -5.4199  -5.3278  -4.5821  -4.5608   3.5593   4.1561
     5.3182   5.5582

     occupation numbers 
     1.0000   1.0000   1.0000   1.0000   1.0000   1.0000   1.0000   1.0000
     1.0000   1.0000   1.0000   1.0000   1.0000   1.0000   1.0000   1.0000
     1.0000   1.0000   1.0000   1.0000   1.0000   1.0000   0.0000   0.0000
     0.0000   0.0000

          k = 0.4446 0.0000 0.0000 (269044 PWs)   bands (ev):

   -27.1825 -27.0199 -26.9055 -26.7748 -16.3691 -15.1184 -13.2477 -12.1051
   -11.1885 -10.5591  -9.6429  -9.5210  -9.2250  -8.6076  -7.2342  -6.9755
    -6.4099  -6.2680  -6.0488  -5.5038  -4.8545  -4.7729   3.3411   4.4284
     4.6832   5.8135

     occupation numbers 
     1.0000   1.0000   1.0000   1.0000   1.0000   1.0000   1.0000   1.0000
     1.0000   1.0000   1.0000   1.0000   1.0000   1.0000   1.0000   1.0000
     1.0000   1.0000   1.0000   1.0000   1.0000   1.0000   0.0000   0.0000
     0.0000   0.0000

          k = 0.4446 0.0698 0.0000 (268991 PWs)   bands (ev):

   -27.1739 -27.0159 -26.9081 -26.7801 -16.3197 -15.0861 -13.4453 -12.3211
   -11.0575 -10.4756  -9.6854  -9.6613  -9.0275  -8.6252  -7.0981  -6.8478
    -6.4580  -6.4438  -5.8781  -5.5662  -4.7992  -4.7061   3.3844   4.4502
     4.6880   5.6732

     occupation numbers 
     1.0000   1.0000   1.0000   1.0000   1.0000   1.0000   1.0000   1.0000
     1.0000   1.0000   1.0000   1.0000   1.0000   1.0000   1.0000   1.0000
     1.0000   1.0000   1.0000   1.0000   1.0000   1.0000   0.0000   0.0000
     0.0000   0.0000

          k = 0.4446 0.1396 0.0000 (269081 PWs)   bands (ev):

   -27.1497 -27.0087 -26.9121 -26.7956 -16.1729 -15.0080 -13.8580 -12.7884
   -10.8254 -10.3935  -9.8693  -9.7456  -8.7239  -8.5690  -6.7872  -6.6889
    -6.5627  -6.5191  -5.6773  -5.6255  -4.6870  -4.6243   3.5244   4.4987
     4.7344   5.4098

     occupation numbers 
     1.0000   1.0000   1.0000   1.0000   1.0000   1.0000   1.0000   1.0000
     1.0000   1.0000   1.0000   1.0000   1.0000   1.0000   1.0000   1.0000
     1.0000   1.0000   1.0000   1.0000   1.0000   1.0000   0.0000   0.0000
     0.0000   0.0000

          k = 0.4446 0.2094 0.0000 (269092 PWs)   bands (ev):

   -27.1143 -27.0128 -26.9053 -26.8200 -15.9334 -14.9983 -14.1712 -13.2999
   -10.6578 -10.4324  -9.9502  -9.8706  -8.4592  -8.4144  -6.8629  -6.7341
    -6.3906  -6.1121  -5.6292  -5.5466  -4.6236  -4.6168   3.7681   4.4513
     4.9363   5.2141

     occupation numbers 
     1.0000   1.0000   1.0000   1.0000   1.0000   1.0000   1.0000   1.0000
     1.0000   1.0000   1.0000   1.0000   1.0000   1.0000   1.0000   1.0000
     1.0000   1.0000   1.0000   1.0000   1.0000   1.0000   0.0000   0.0000
     0.0000   0.0000

          k = 0.4446 0.2792 0.0000 (269089 PWs)   bands (ev):

   -27.0742 -27.0372 -26.8818 -26.8505 -15.6137 -15.2529 -14.0969 -13.7585
   -10.5693 -10.5073  -9.9719  -9.9529  -8.3071  -8.2974  -6.9230  -6.8735
    -6.0065  -5.7826  -5.6929  -5.5507  -4.6484  -4.6257   4.0641   4.3041
     5.1370   5.1603

     occupation numbers 
     1.0000   1.0000   1.0000   1.0000   1.0000   1.0000   1.0000   1.0000
     1.0000   1.0000   1.0000   1.0000   1.0000   1.0000   1.0000   1.0000
     1.0000   1.0000   1.0000   1.0000   1.0000   1.0000   0.0000   0.0000
     0.0000   0.0000

     the Fermi energy is    -1.7358 ev

!    total energy              =    -240.24631917 Ry
     estimated scf accuracy    <       0.00000004 Ry
     smearing contrib. (-TS)   =       0.00000000 Ry
     internal energy E=F+TS    =    -240.24631917 Ry

     The total energy is F=E-TS. E is the sum of the following terms:
     one-electron contribution =   -1260.12106729 Ry
     hartree contribution      =     643.86081876 Ry
     xc contribution           =     -51.69253835 Ry
     ewald contribution        =     427.70646770 Ry

     convergence has been achieved in   7 iterations

     negative rho (up, down):  5.106E-06 0.000E+00

     Forces acting on atoms (cartesian axes, Ry/au):

     atom    1 type  1   force =     0.00000000    0.00121432   -0.00205307
     atom    2 type  1   force =     0.00000000    0.00121432    0.00205307
     atom    3 type  1   force =     0.00000000   -0.00121432   -0.00205307
     atom    4 type  1   force =     0.00000000   -0.00121432    0.00205307
     atom    5 type  2   force =    -0.00000000   -0.01032186   -0.00369547
     atom    6 type  2   force =     0.00000000   -0.01032186    0.00369547
     atom    7 type  2   force =    -0.00000000    0.01032186   -0.00369547
     atom    8 type  2   force =     0.00000000    0.01032186    0.00369547
     The non-local contrib.  to forces
     atom    1 type  1   force =     0.00000000   -0.16634551    0.36609759
     atom    2 type  1   force =     0.00000000   -0.16634551   -0.36609759
     atom    3 type  1   force =     0.00000000    0.16634551    0.36609759
     atom    4 type  1   force =    -0.00000000    0.16634551   -0.36609759
     atom    5 type  2   force =     0.00000000   -1.03298704    2.26313782
     atom    6 type  2   force =    -0.00000000   -1.03298704   -2.26313782
     atom    7 type  2   force =     0.00000000    1.03298704    2.26313782
     atom    8 type  2   force =     0.00000000    1.03298704   -2.26313782
     The ionic contribution  to forces
     atom    1 type  1   force =     0.00000000    1.02992280    2.91295323
     atom    2 type  1   force =    -0.00000000    1.02992280   -2.91295323
     atom    3 type  1   force =    -0.00000000   -1.02992280    2.91295323
     atom    4 type  1   force =     0.00000000   -1.02992280   -2.91295323
     atom    5 type  2   force =     0.00000000    3.90010518  -44.51859357
     atom    6 type  2   force =    -0.00000000    3.90010518   44.51859357
     atom    7 type  2   force =    -0.00000000   -3.90010518  -44.51859357
     atom    8 type  2   force =     0.00000000   -3.90010518   44.51859357
     The local contribution  to forces
     atom    1 type  1   force =     0.00000000   -0.86330036   -3.27860296
     atom    2 type  1   force =     0.00000000   -0.86330036    3.27860296
     atom    3 type  1   force =    -0.00000000    0.86330036   -3.27860296
     atom    4 type  1   force =    -0.00000000    0.86330036    3.27860296
     atom    5 type  2   force =     0.00000000   -2.87743051   42.25219581
     atom    6 type  2   force =     0.00000000   -2.87743051  -42.25219581
     atom    7 type  2   force =     0.00000000    2.87743051   42.25219581
     atom    8 type  2   force =     0.00000000    2.87743051  -42.25219581
     The core correction contribution to forces
     atom    1 type  1   force =    -0.00000000    0.00097872   -0.00266269
     atom    2 type  1   force =    -0.00000000    0.00097872    0.00266269
     atom    3 type  1   force =     0.00000000   -0.00097872   -0.00266269
     atom    4 type  1   force =     0.00000000   -0.00097872    0.00266269
     atom    5 type  2   force =     0.00000000    0.00000000    0.00000000
     atom    6 type  2   force =     0.00000000    0.00000000    0.00000000
     atom    7 type  2   force =     0.00000000    0.00000000    0.00000000
     atom    8 type  2   force =     0.00000000    0.00000000    0.00000000
     The Hubbard contrib.    to forces
     atom    1 type  1   force =     0.00000000    0.00000000    0.00000000
     atom    2 type  1   force =     0.00000000    0.00000000    0.00000000
     atom    3 type  1   force =     0.00000000    0.00000000    0.00000000
     atom    4 type  1   force =     0.00000000    0.00000000    0.00000000
     atom    5 type  2   force =     0.00000000    0.00000000    0.00000000
     atom    6 type  2   force =     0.00000000    0.00000000    0.00000000
     atom    7 type  2   force =     0.00000000    0.00000000    0.00000000
     atom    8 type  2   force =     0.00000000    0.00000000    0.00000000
     The SCF correction term to forces
     atom    1 type  1   force =    -0.00000000   -0.00004133    0.00016176
     atom    2 type  1   force =    -0.00000000   -0.00004133   -0.00016176
     atom    3 type  1   force =    -0.00000000    0.00004133    0.00016176
     atom    4 type  1   force =    -0.00000000    0.00004133   -0.00016176
     atom    5 type  2   force =    -0.00000000   -0.00000000   -0.00043552
     atom    6 type  2   force =    -0.00000000   -0.00000000    0.00043552
     atom    7 type  2   force =    -0.00000000    0.00000000   -0.00043552
     atom    8 type  2   force =    -0.00000000    0.00000000    0.00043552

     Total force =     0.008797     Total SCF correction =     0.000933
     SCF correction compared to forces is large: reduce conv_thr to get better values


     Computing stress (Cartesian axis) and pressure


     negative rho (up, down):  5.106E-06 0.000E+00
          total   stress  (Ry/bohr**3)                   (kbar)     P=        0.11
  -0.00000486   0.00000000   0.00000000           -0.71        0.00        0.00
   0.00000000  -0.00003133   0.00000000            0.00       -4.61        0.00
   0.00000000   0.00000000   0.00003841            0.00        0.00        5.65

     kinetic stress (kbar)   9153.41      0.00      0.00
                                0.00   8954.92      0.00
                                0.00      0.00   8335.37

     local   stress (kbar)-161871.40      0.00      0.00
                                0.00-163375.09      0.00
                                0.00      0.00 156528.21

     nonloc. stress (kbar)   1182.62      0.00      0.00
                                0.00   1135.69      0.00
                                0.00      0.00    969.26

     hartree stress (kbar)  81216.73     -0.00      0.00
                               -0.00  81650.59      0.00
                                0.00      0.00 -75364.23

     exc-cor stress (kbar)  -2145.87      0.00     -0.00
                                0.00  -2141.45     -0.00
                               -0.00     -0.00  -2135.32

     corecor stress (kbar)    -73.76     -0.00      0.00
                               -0.00    -73.60      0.00
                                0.00      0.00    -72.67

     ewald   stress (kbar)  72537.55     -0.00      0.00
                               -0.00  73844.34     -0.00
                                0.00     -0.00 -88254.98

     hubbard stress (kbar)      0.00      0.00      0.00
                                0.00      0.00      0.00
                                0.00      0.00      0.00

     DFT-D   stress (kbar)      0.00      0.00      0.00
                                0.00      0.00      0.00
                                0.00      0.00      0.00

     XDM     stress (kbar)      0.00      0.00      0.00
                                0.00      0.00      0.00
                                0.00      0.00      0.00

     dft-nl  stress (kbar)      0.00      0.00      0.00
                                0.00      0.00      0.00
                                0.00      0.00      0.00

     TS-vdW  stress (kbar)      0.00      0.00      0.00
                                0.00      0.00      0.00
                                0.00      0.00      0.00

     MDB     stress (kbar)      0.00      0.00      0.00
                                0.00      0.00      0.00
                                0.00      0.00      0.00

     3D-RISM stress (kbar)      0.00      0.00      0.00
                                0.00      0.00      0.00
                                0.00      0.00      0.00

     Energy error            =      5.0E-04 Ry
     Gradient error          =      3.7E-03 Ry/Bohr
     Cell gradient error     =      4.6E+00 kbar

     number of scf cycles    =   2
     number of bfgs steps    =   1

     enthalpy           old  =    -240.2458199107 Ry
     enthalpy           new  =    -240.2463191727 Ry

     CASE: enthalpy          _new < enthalpy          _old

     new trust radius        =       0.0047524875 bohr
     new conv_thr            =       0.0000000999 Ry

     new unit-cell volume =   1081.51481 a.u.^3 (   160.26396 Ang^3 )
     density =      1.28518 g/cm^3

CELL_PARAMETERS (angstrom)
   2.628866395   0.000000000   0.000000000
   0.000000000   4.183629855   0.000000000
   0.000000000   0.000000000  14.571830239

ATOMIC_POSITIONS (crystal)
C             0.5000000000        0.1408997996        0.0353660616    0   1   1
C             0.0000000000        0.6408997996       -0.0353660616    0   1   1
C             0.0000000000        0.3591002004        0.0353660616    0   1   1
C             0.5000000000        0.8591002004       -0.0353660616    0   1   1
F             0.5000000000        0.0000000000       -0.1210465380    0   0   1
F             0.0000000000        0.5000000000        0.1210465380    0   0   1
F             0.0000000000        0.5000000000       -0.1210465380    0   0   1
F             0.5000000000        0.0000000000        0.1210465380    0   0   1



     Writing config-only to output data dir ../tmp/fgz.save/
     NEW-OLD atomic charge density approx. for the potential

     negative rho (up, down):  1.681E-04 0.000E+00
     extrapolated charge   43.96312, renormalised to   44.00000

     total cpu time spent up to now is     6112.9 secs

     Self-consistent Calculation

     iteration #  1     ecut=   600.00 Ry     beta= 0.70
     Davidson diagonalization with overlap

---- Real-time Memory Report at c_bands before calling an iterative solver
           197 MiB given to the printing process from OS
             0 MiB allocation reported by mallinfo(arena+hblkhd)
        343270 MiB available memory on the node where the printing process lives
------------------
     ethr =  1.00E-06,  avg # of iterations =  4.4

     negative rho (up, down):  4.317E-05 0.000E+00

     total cpu time spent up to now is     6530.5 secs

     total energy              =    -240.24604388 Ry
     estimated scf accuracy    <       0.00016758 Ry

     iteration #  2     ecut=   600.00 Ry     beta= 0.70
     Davidson diagonalization with overlap

---- Real-time Memory Report at c_bands before calling an iterative solver
           197 MiB given to the printing process from OS
             0 MiB allocation reported by mallinfo(arena+hblkhd)
        343291 MiB available memory on the node where the printing process lives
------------------
     ethr =  3.81E-07,  avg # of iterations =  5.5

     negative rho (up, down):  3.073E-05 0.000E+00

     total cpu time spent up to now is     7052.4 secs

     total energy              =    -240.24637155 Ry
     estimated scf accuracy    <       0.00049852 Ry

     iteration #  3     ecut=   600.00 Ry     beta= 0.70
     Davidson diagonalization with overlap

---- Real-time Memory Report at c_bands before calling an iterative solver
           197 MiB given to the printing process from OS
             0 MiB allocation reported by mallinfo(arena+hblkhd)
        343285 MiB available memory on the node where the printing process lives
------------------
     ethr =  3.81E-07,  avg # of iterations =  2.7

     negative rho (up, down):  2.478E-05 0.000E+00

     total cpu time spent up to now is     7358.1 secs

     total energy              =    -240.24639608 Ry
     estimated scf accuracy    <       0.00009357 Ry

     iteration #  4     ecut=   600.00 Ry     beta= 0.70
     Davidson diagonalization with overlap

---- Real-time Memory Report at c_bands before calling an iterative solver
           197 MiB given to the printing process from OS
             0 MiB allocation reported by mallinfo(arena+hblkhd)
        343275 MiB available memory on the node where the printing process lives
------------------
     ethr =  2.13E-07,  avg # of iterations =  1.0

     negative rho (up, down):  7.776E-06 0.000E+00

     total cpu time spent up to now is     7540.4 secs

     total energy              =    -240.24636843 Ry
     estimated scf accuracy    <       0.00005648 Ry

     iteration #  5     ecut=   600.00 Ry     beta= 0.70
     Davidson diagonalization with overlap

---- Real-time Memory Report at c_bands before calling an iterative solver
           197 MiB given to the printing process from OS
             0 MiB allocation reported by mallinfo(arena+hblkhd)
        343286 MiB available memory on the node where the printing process lives
------------------
     ethr =  1.28E-07,  avg # of iterations =  2.8

     negative rho (up, down):  5.470E-06 0.000E+00

     total cpu time spent up to now is     7854.3 secs

     total energy              =    -240.24637699 Ry
     estimated scf accuracy    <       0.00000167 Ry

     iteration #  6     ecut=   600.00 Ry     beta= 0.70
     Davidson diagonalization with overlap

---- Real-time Memory Report at c_bands before calling an iterative solver
           197 MiB given to the printing process from OS
             0 MiB allocation reported by mallinfo(arena+hblkhd)
        343279 MiB available memory on the node where the printing process lives
------------------
     ethr =  3.80E-09,  avg # of iterations =  3.4

     negative rho (up, down):  5.096E-06 0.000E+00

     total cpu time spent up to now is     8207.6 secs

     End of self-consistent calculation

          k = 0.0000 0.0000 0.0000 (269197 PWs)   bands (ev):

   -28.1444 -27.8592 -26.6406 -26.5211 -18.7872 -15.5377 -13.5396 -11.1327
   -10.3395  -9.9528  -8.6424  -8.2636  -7.6058  -7.5403  -7.2666  -5.4321
    -5.2873  -5.2233  -4.5853  -4.2758  -4.0160  -2.7020   0.8253   3.3091
     3.4525   4.4436

     occupation numbers 
     1.0000   1.0000   1.0000   1.0000   1.0000   1.0000   1.0000   1.0000
     1.0000   1.0000   1.0000   1.0000   1.0000   1.0000   1.0000   1.0000
     1.0000   1.0000   1.0000   1.0000   1.0000   1.0000   0.0000   0.0000
     0.0000   0.0000

          k = 0.0000 0.0698 0.0000 (269236 PWs)   bands (ev):

   -28.1126 -27.8347 -26.6798 -26.5573 -18.7257 -15.7492 -13.3689 -11.0867
   -10.2199  -9.9980  -8.5921  -8.2745  -7.7029  -7.4506  -7.2773  -5.4865
    -5.3636  -5.3270  -4.6420  -4.2288  -3.9728  -2.7495   0.9728   3.3358
     3.4476   4.6250

     occupation numbers 
     1.0000   1.0000   1.0000   1.0000   1.0000   1.0000   1.0000   1.0000
     1.0000   1.0000   1.0000   1.0000   1.0000   1.0000   1.0000   1.0000
     1.0000   1.0000   1.0000   1.0000   1.0000   1.0000   0.0000   0.0000
     0.0000   0.0000

          k = 0.0000 0.1397 0.0000 (269256 PWs)   bands (ev):

   -28.0217 -27.7684 -26.7848 -26.6575 -18.5429 -16.2325 -12.9809 -11.0284
   -10.0507  -9.9088  -8.4460  -8.3204  -7.9743  -7.3252  -7.2071  -5.6645
    -5.6134  -5.4305  -4.7609  -4.2012  -3.8547  -2.8785   1.3719   3.4143
     3.4176   5.1335

     occupation numbers 
     1.0000   1.0000   1.0000   1.0000   1.0000   1.0000   1.0000   1.0000
     1.0000   1.0000   1.0000   1.0000   1.0000   1.0000   1.0000   1.0000
     1.0000   1.0000   1.0000   1.0000   1.0000   1.0000   0.0000   0.0000
     0.0000   0.0000

          k = 0.0000 0.2095 0.0000 (269210 PWs)   bands (ev):

   -27.8872 -27.6881 -26.9144 -26.7971 -18.2447 -16.7981 -12.5103 -11.1724
    -9.8930  -9.5171  -8.4347  -8.3761  -8.2199  -7.4484  -6.8703  -5.9813
    -5.7262  -5.5630  -4.8294  -4.3066  -3.6850  -3.0611   1.9248   3.3081
     3.5416   4.3896

     occupation numbers 
[...]
     1.0000   1.0000   1.0000   1.0000   1.0000   1.0000   1.0000   1.0000
     1.0000   1.0000   1.0000   1.0000   1.0000   1.0000   0.0000   0.0000
     0.0000   0.0000

          k = 0.2223 0.2801 0.0000 (269210 PWs)   bands (ev):

   -27.4839 -27.4124 -26.8808 -26.8323 -17.2684 -16.7880 -12.0409 -11.5893
   -10.3469 -10.2759  -9.2025  -9.1348  -8.3840  -8.3162  -6.4087  -6.1555
    -6.0360  -5.8777  -4.9771  -4.9305  -4.3927  -4.3372   3.0760   3.7773
     5.7927   6.0458

     occupation numbers 
     1.0000   1.0000   1.0000   1.0000   1.0000   1.0000   1.0000   1.0000
     1.0000   1.0000   1.0000   1.0000   1.0000   1.0000   1.0000   1.0000
     1.0000   1.0000   1.0000   1.0000   1.0000   1.0000   0.0000   0.0000
     0.0000   0.0000

          k = 0.3335 0.0000 0.0000 (268961 PWs)   bands (ev):

   -27.4894 -27.2852 -26.6924 -26.5785 -17.4293 -14.2069 -13.9031 -11.4324
   -10.9010 -10.2117  -9.8117  -9.3693  -9.3231  -8.0438  -7.0960  -6.4344
    -6.4000  -6.3419  -5.8818  -4.8989  -4.7599  -4.4933   2.4285   4.0004
     5.6270   6.9642

     occupation numbers 
     1.0000   1.0000   1.0000   1.0000   1.0000   1.0000   1.0000   1.0000
     1.0000   1.0000   1.0000   1.0000   1.0000   1.0000   1.0000   1.0000
     1.0000   1.0000   1.0000   1.0000   1.0000   1.0000   0.0000   0.0000
     0.0000   0.0000

          k = 0.3335 0.0700 0.0000 (268947 PWs)   bands (ev):

   -27.4700 -27.2711 -26.7098 -26.5958 -17.3734 -14.5141 -13.7215 -11.3308
   -11.0909 -10.2536  -9.7393  -9.5098  -9.0542  -8.1616  -7.0055  -6.5055
    -6.4271  -6.1786  -5.7386  -5.0474  -4.7292  -4.4598   2.4913   4.1053
     5.5854   6.7675

     occupation numbers 
     1.0000   1.0000   1.0000   1.0000   1.0000   1.0000   1.0000   1.0000
     1.0000   1.0000   1.0000   1.0000   1.0000   1.0000   1.0000   1.0000
     1.0000   1.0000   1.0000   1.0000   1.0000   1.0000   0.0000   0.0000
     0.0000   0.0000

          k = 0.3335 0.1401 0.0000 (269068 PWs)   bands (ev):

   -27.4148 -27.2337 -26.7564 -26.6447 -17.2072 -15.0297 -13.4900 -11.5209
   -11.1121 -10.3634  -9.5846  -9.5685  -8.7353  -8.3501  -6.8477  -6.5528
    -6.4001  -5.8802  -5.4916  -5.3237  -4.6543  -4.4789   2.6897   4.3719
     5.4384   6.2741

     occupation numbers 
     1.0000   1.0000   1.0000   1.0000   1.0000   1.0000   1.0000   1.0000
     1.0000   1.0000   1.0000   1.0000   1.0000   1.0000   1.0000   1.0000
     1.0000   1.0000   1.0000   1.0000   1.0000   1.0000   0.0000   0.0000
     0.0000   0.0000

          k = 0.3335 0.2101 0.0000 (269137 PWs)   bands (ev):

   -27.3338 -27.1919 -26.8119 -26.7154 -16.9347 -15.5822 -13.2260 -12.0163
   -10.8935 -10.4804  -9.6022  -9.5162  -8.4803  -8.3954  -6.7438  -6.4129
    -6.4034  -5.5889  -5.5663  -5.3207  -4.5793  -4.5601   3.0435   4.5386
     5.2561   5.8725

     occupation numbers 
     1.0000   1.0000   1.0000   1.0000   1.0000   1.0000   1.0000   1.0000
     1.0000   1.0000   1.0000   1.0000   1.0000   1.0000   1.0000   1.0000
     1.0000   1.0000   1.0000   1.0000   1.0000   1.0000   0.0000   0.0000
     0.0000   0.0000

          k = 0.3335 0.2801 0.0000 (269147 PWs)   bands (ev):

   -27.2461 -27.1874 -26.8324 -26.7895 -16.5634 -16.1057 -12.8953 -12.4879
   -10.7184 -10.5890  -9.6104  -9.5672  -8.3406  -8.3328  -6.6429  -6.5069
    -6.1237  -5.8146  -5.3835  -5.2909  -4.5826  -4.5555   3.5528   4.1455
     5.3713   5.5853

     occupation numbers 
     1.0000   1.0000   1.0000   1.0000   1.0000   1.0000   1.0000   1.0000
     1.0000   1.0000   1.0000   1.0000   1.0000   1.0000   1.0000   1.0000
     1.0000   1.0000   1.0000   1.0000   1.0000   1.0000   0.0000   0.0000
     0.0000   0.0000

          k = 0.4447 0.0000 0.0000 (269044 PWs)   bands (ev):

   -27.1440 -26.9823 -26.8630 -26.7335 -16.3965 -15.1396 -13.2465 -12.1011
   -11.1723 -10.5367  -9.6194  -9.4964  -9.2031  -8.5853  -7.2038  -6.9474
    -6.3892  -6.2510  -6.0326  -5.4851  -4.8512  -4.7745   3.3251   4.4161
     4.6986   5.8243

     occupation numbers 
     1.0000   1.0000   1.0000   1.0000   1.0000   1.0000   1.0000   1.0000
     1.0000   1.0000   1.0000   1.0000   1.0000   1.0000   1.0000   1.0000
     1.0000   1.0000   1.0000   1.0000   1.0000   1.0000   0.0000   0.0000
     0.0000   0.0000

          k = 0.4447 0.0700 0.0000 (268991 PWs)   bands (ev):

   -27.1352 -26.9780 -26.8657 -26.7388 -16.3466 -15.1067 -13.4462 -12.3182
   -11.0415 -10.4550  -9.6623  -9.6379  -9.0040  -8.6030  -7.0666  -6.8182
    -6.4484  -6.4256  -5.8535  -5.5463  -4.7952  -4.7052   3.3700   4.4408
     4.7028   5.6833

     occupation numbers 
     1.0000   1.0000   1.0000   1.0000   1.0000   1.0000   1.0000   1.0000
     1.0000   1.0000   1.0000   1.0000   1.0000   1.0000   1.0000   1.0000
     1.0000   1.0000   1.0000   1.0000   1.0000   1.0000   0.0000   0.0000
     0.0000   0.0000

          k = 0.4447 0.1401 0.0000 (269081 PWs)   bands (ev):

   -27.1106 -26.9700 -26.8703 -26.7545 -16.1982 -15.0263 -13.8638 -12.7889
   -10.8104 -10.3778  -9.8459  -9.7233  -8.6996  -8.5459  -6.7566  -6.6823
    -6.5524  -6.4855  -5.6440  -5.5969  -4.6815  -4.6213   3.5138   4.4845
     4.7630   5.4223

     occupation numbers 
     1.0000   1.0000   1.0000   1.0000   1.0000   1.0000   1.0000   1.0000
     1.0000   1.0000   1.0000   1.0000   1.0000   1.0000   1.0000   1.0000
     1.0000   1.0000   1.0000   1.0000   1.0000   1.0000   0.0000   0.0000
     0.0000   0.0000

          k = 0.4447 0.2101 0.0000 (269092 PWs)   bands (ev):

   -27.0746 -26.9728 -26.8647 -26.7792 -15.9560 -15.0130 -14.1833 -13.3049
   -10.6449 -10.4210  -9.9263  -9.8495  -8.4352  -8.3904  -6.8632  -6.7307
    -6.3531  -6.0750  -5.5884  -5.5064  -4.6220  -4.6111   3.7607   4.4307
     4.9901   5.2376

     occupation numbers 
     1.0000   1.0000   1.0000   1.0000   1.0000   1.0000   1.0000   1.0000
     1.0000   1.0000   1.0000   1.0000   1.0000   1.0000   1.0000   1.0000
     1.0000   1.0000   1.0000   1.0000   1.0000   1.0000   0.0000   0.0000
     0.0000   0.0000

          k = 0.4447 0.2801 0.0000 (269089 PWs)   bands (ev):

   -27.0338 -26.9966 -26.8416 -26.8100 -15.6327 -15.2681 -14.1101 -13.7681
   -10.5584 -10.4973  -9.9491  -9.9315  -8.2834  -8.2736  -6.9247  -6.8741
    -5.9644  -5.7454  -5.6421  -5.5064  -4.6479  -4.6224   4.0534   4.2858
     5.2057   5.2083

     occupation numbers 
     1.0000   1.0000   1.0000   1.0000   1.0000   1.0000   1.0000   1.0000
     1.0000   1.0000   1.0000   1.0000   1.0000   1.0000   1.0000   1.0000
     1.0000   1.0000   1.0000   1.0000   1.0000   1.0000   0.0000   0.0000
     0.0000   0.0000

     the Fermi energy is    -1.7427 ev

!    total energy              =    -240.24642814 Ry
     estimated scf accuracy    <          6.1E-10 Ry
     smearing contrib. (-TS)   =       0.00000000 Ry
     internal energy E=F+TS    =    -240.24642814 Ry

     The total energy is F=E-TS. E is the sum of the following terms:
     one-electron contribution =   -1261.17715232 Ry
     hartree contribution      =     644.41571783 Ry
     xc contribution           =     -51.69309917 Ry
     ewald contribution        =     428.20810552 Ry

     convergence has been achieved in   1 iterations

     negative rho (up, down):  5.065E-06 0.000E+00

     Forces acting on atoms (cartesian axes, Ry/au):

     atom    1 type  1   force =     0.00000000   -0.00002941    0.00002619
     atom    2 type  1   force =     0.00000000   -0.00002941   -0.00002619
     atom    3 type  1   force =     0.00000000    0.00002941    0.00002619
     atom    4 type  1   force =     0.00000000    0.00002941   -0.00002619
     atom    5 type  2   force =     0.00000000   -0.01045853    0.00003761
     atom    6 type  2   force =     0.00000000   -0.01045853   -0.00003761
     atom    7 type  2   force =     0.00000000    0.01045853    0.00003761
     atom    8 type  2   force =     0.00000000    0.01045853   -0.00003761
     The non-local contrib.  to forces
     atom    1 type  1   force =     0.00000000   -0.16678858    0.36463534
     atom    2 type  1   force =    -0.00000000   -0.16678858   -0.36463534
     atom    3 type  1   force =     0.00000000    0.16678858    0.36463534
     atom    4 type  1   force =     0.00000000    0.16678858   -0.36463534
     atom    5 type  2   force =     0.00000000   -1.02286965    2.26148919
     atom    6 type  2   force =    -0.00000000   -1.02286965   -2.26148919
     atom    7 type  2   force =     0.00000000    1.02286965    2.26148919
     atom    8 type  2   force =     0.00000000    1.02286965   -2.26148919
     The ionic contribution  to forces
     atom    1 type  1   force =    -0.00000000    1.00111513    2.94492667
     atom    2 type  1   force =    -0.00000000    1.00111513   -2.94492667
     atom    3 type  1   force =    -0.00000000   -1.00111513    2.94492667
     atom    4 type  1   force =    -0.00000000   -1.00111513   -2.94492667
     atom    5 type  2   force =    -0.00000000    3.87385112  -44.60495655
     atom    6 type  2   force =    -0.00000000    3.87385112   44.60495655
     atom    7 type  2   force =    -0.00000000   -3.87385112  -44.60495655
     atom    8 type  2   force =    -0.00000000   -3.87385112   44.60495655
     The local contribution  to forces
     atom    1 type  1   force =     0.00000000   -0.83537082   -3.30683737
     atom    2 type  1   force =     0.00000000   -0.83537082    3.30683737
     atom    3 type  1   force =     0.00000000    0.83537082   -3.30683737
     atom    4 type  1   force =     0.00000000    0.83537082    3.30683737
     atom    5 type  2   force =     0.00000000   -2.86143932   42.34350305
     atom    6 type  2   force =     0.00000000   -2.86143932  -42.34350305
     atom    7 type  2   force =     0.00000000    2.86143932   42.34350305
     atom    8 type  2   force =     0.00000000    2.86143932  -42.34350305
     The core correction contribution to forces
     atom    1 type  1   force =     0.00000000    0.00101260   -0.00269050
     atom    2 type  1   force =     0.00000000    0.00101260    0.00269050
     atom    3 type  1   force =    -0.00000000   -0.00101260   -0.00269050
     atom    4 type  1   force =    -0.00000000   -0.00101260    0.00269050
     atom    5 type  2   force =     0.00000000    0.00000000    0.00000000
     atom    6 type  2   force =     0.00000000    0.00000000    0.00000000
     atom    7 type  2   force =     0.00000000    0.00000000    0.00000000
     atom    8 type  2   force =     0.00000000    0.00000000    0.00000000
     The Hubbard contrib.    to forces
     atom    1 type  1   force =     0.00000000    0.00000000    0.00000000
     atom    2 type  1   force =     0.00000000    0.00000000    0.00000000
     atom    3 type  1   force =     0.00000000    0.00000000    0.00000000
     atom    4 type  1   force =     0.00000000    0.00000000    0.00000000
     atom    5 type  2   force =     0.00000000    0.00000000    0.00000000
     atom    6 type  2   force =     0.00000000    0.00000000    0.00000000
     atom    7 type  2   force =     0.00000000    0.00000000    0.00000000
     atom    8 type  2   force =     0.00000000    0.00000000    0.00000000
     The SCF correction term to forces
     atom    1 type  1   force =     0.00000000    0.00000227   -0.00000794
     atom    2 type  1   force =    -0.00000000    0.00000227    0.00000794
     atom    3 type  1   force =    -0.00000000   -0.00000227   -0.00000794
     atom    4 type  1   force =     0.00000000   -0.00000227    0.00000794
     atom    5 type  2   force =    -0.00000000   -0.00000000    0.00000193
     atom    6 type  2   force =    -0.00000000   -0.00000000   -0.00000193
     atom    7 type  2   force =    -0.00000000    0.00000000    0.00000193
     atom    8 type  2   force =    -0.00000000    0.00000000   -0.00000193

     Total force =     0.000109     Total SCF correction =     0.000017
     SCF correction compared to forces is large: reduce conv_thr to get better values


     Computing stress (Cartesian axis) and pressure


     negative rho (up, down):  5.065E-06 0.000E+00
          total   stress  (Ry/bohr**3)                   (kbar)     P=       -0.03
  -0.00000008   0.00000000   0.00000000           -0.01        0.00        0.00
   0.00000000   0.00000000   0.00000000            0.00        0.00        0.00
   0.00000000   0.00000000  -0.00000046            0.00        0.00       -0.07

     kinetic stress (kbar)   9184.87      0.00      0.00
                                0.00   8993.16      0.00
                                0.00      0.00   8358.70

     local   stress (kbar)-162641.06     -0.00      0.00
                               -0.00-164125.65     -0.00
                                0.00     -0.00 157315.44

     nonloc. stress (kbar)   1186.65      0.00      0.00
                                0.00   1140.17      0.00
                                0.00      0.00    972.39

     hartree stress (kbar)  81595.03     -0.00      0.00
                               -0.00  82027.90      0.00
                                0.00      0.00 -75739.54

     exc-cor stress (kbar)  -2153.26      0.00     -0.00
                                0.00  -2148.96      0.00
                               -0.00      0.00  -2142.79

     corecor stress (kbar)    -74.03     -0.00      0.00
                               -0.00    -73.86     -0.00
                                0.00     -0.00    -72.92

     ewald   stress (kbar)  72901.79     -0.00      0.00
                               -0.00  74187.23      0.00
                                0.00      0.00 -88691.35

     hubbard stress (kbar)      0.00      0.00      0.00
                                0.00      0.00      0.00
                                0.00      0.00      0.00

     DFT-D   stress (kbar)      0.00      0.00      0.00
                                0.00      0.00      0.00
                                0.00      0.00      0.00

     XDM     stress (kbar)      0.00      0.00      0.00
                                0.00      0.00      0.00
                                0.00      0.00      0.00

     dft-nl  stress (kbar)      0.00      0.00      0.00
                                0.00      0.00      0.00
                                0.00      0.00      0.00

     TS-vdW  stress (kbar)      0.00      0.00      0.00
                                0.00      0.00      0.00
                                0.00      0.00      0.00

     MDB     stress (kbar)      0.00      0.00      0.00
                                0.00      0.00      0.00
                                0.00      0.00      0.00

     3D-RISM stress (kbar)      0.00      0.00      0.00
                                0.00      0.00      0.00
                                0.00      0.00      0.00

     Message from routine bfgs:
     history already reset at previous step: exiting
     Energy error            =      7.1E-09 Ry
     Gradient error          =      3.8E-05 Ry/Bohr
     Cell gradient error     =      1.1E-02 kbar

     bfgs failed after  24 scf cycles and  17 bfgs steps, convergence not achieved
     (criteria: energy <  5.0E-05 Ry, force <  1.0E-05 Ry/Bohr, cell <  2.5E-02 kbar)

     End of BFGS Geometry Optimization

     Final enthalpy           =    -240.2464281412 Ry

     File ../tmp/fgz.bfgs deleted, as requested
Begin final coordinates
     new unit-cell volume =   1078.66612 a.u.^3 (   159.84183 Ang^3 )
     density =      1.28857 g/cm^3

CELL_PARAMETERS (angstrom)
   2.628550796   0.000000000   0.000000000
   0.000000000   4.173111231   0.000000000
   0.000000000   0.000000000  14.571830239

ATOMIC_POSITIONS (crystal)
C             0.5000000000        0.1408825280        0.0354714617    0   1   1
C             0.0000000000        0.6408825280       -0.0354714617    0   1   1
C             0.0000000000        0.3591174720        0.0354714617    0   1   1
C             0.5000000000        0.8591174720       -0.0354714617    0   1   1
F             0.5000000000        0.0000000000       -0.1212240465    0   0   1
F             0.0000000000        0.5000000000        0.1212240465    0   0   1
F             0.0000000000        0.5000000000       -0.1212240465    0   0   1
F             0.5000000000        0.0000000000        0.1212240465    0   0   1
End final coordinates



     Writing config-only to output data dir ../tmp/fgz.save/

     Writing all to output data dir ../tmp/fgz.save/

     init_run     :     43.92s CPU     80.97s WALL (       1 calls)
     electrons    :  23919.24s CPU  44442.45s WALL (      24 calls)
     update_pot   :     17.80s CPU     17.88s WALL (      23 calls)
     forces       :   1142.92s CPU   2135.84s WALL (      24 calls)
     stress       :    501.64s CPU   1025.46s WALL (      24 calls)

     Called by init_run:
     wfcinit      :     42.03s CPU     78.63s WALL (       1 calls)
     wfcinit:atom :      0.03s CPU      0.03s WALL (      25 calls)
     wfcinit:wfcr :     41.43s CPU     77.81s WALL (      25 calls)
     potinit      :      0.27s CPU      0.29s WALL (       1 calls)
     hinit0       :      0.68s CPU      0.71s WALL (       1 calls)

     Called by electrons:
     c_bands      :  22958.03s CPU  42172.59s WALL (     156 calls)
     sum_band     :    925.62s CPU   2190.14s WALL (     156 calls)
     v_of_rho     :      4.69s CPU      5.28s WALL (     161 calls)
     v_h          :      0.40s CPU      0.47s WALL (     161 calls)
     v_xc         :      5.54s CPU      6.19s WALL (     209 calls)
     newd         :     29.77s CPU     67.18s WALL (     161 calls)
     mix_rho      :      1.30s CPU      1.51s WALL (     156 calls)

     Called by c_bands:
     init_us_2    :      7.44s CPU     19.67s WALL (    9025 calls)
     init_us_2:cp :      7.39s CPU     19.61s WALL (    9025 calls)
     cegterg      :  21642.32s CPU  39450.08s WALL (    3900 calls)

     Called by sum_band:
     sum_band:wei :      0.00s CPU      0.01s WALL (     156 calls)
     sum_band:loo :    879.19s CPU   2081.42s WALL (     156 calls)
     sum_band:buf :      1.00s CPU      2.05s WALL (    3900 calls)
     sum_band:ini :      2.24s CPU      4.45s WALL (    3900 calls)
     sum_band:cal :    788.19s CPU   1969.32s WALL (    3900 calls)
     sum_band:bec :      0.03s CPU      0.07s WALL (    3900 calls)
     addusdens    :     18.70s CPU     73.89s WALL (     156 calls)
     addusd:skk   :      0.42s CPU      1.79s WALL (     312 calls)
     addusd:dgemm :     12.02s CPU     53.10s WALL (     312 calls)
     addusd:qvan2 :      5.89s CPU     18.58s WALL (     312 calls)

     Called by *egterg:
     cdiaghg      :   1858.36s CPU   1894.18s WALL (   11983 calls)
     cegterg:over :   7086.17s CPU  11523.78s WALL (    9133 calls)
     cegterg:upda :    486.14s CPU   1034.66s WALL (    9133 calls)
     cegterg:last :    556.31s CPU   1115.25s WALL (    7557 calls)
     h_psi        :   4951.01s CPU  12190.22s WALL (   13058 calls)
     s_psi        :    164.86s CPU    413.66s WALL (   13058 calls)
     g_psi        :      2.61s CPU      1.94s WALL (    9133 calls)

     Called by h_psi:
     h_psi:calbec :   3203.41s CPU   8030.35s WALL (   13058 calls)
     vloc_psi     :    908.55s CPU   1057.31s WALL (   13058 calls)
     add_vuspsi   :    836.88s CPU   3093.72s WALL (   13058 calls)

     General routines
     calbec       :   5438.85s CPU  12648.69s WALL (   19958 calls)
     fft          :      8.14s CPU      9.04s WALL (    2413 calls)
     ffts         :      1.07s CPU      1.24s WALL (     156 calls)
     fftw         :    969.74s CPU   1107.69s WALL (  619452 calls)
     davcio       :      0.01s CPU      0.03s WALL (      25 calls)

     Parallel routines

     PWSCF        :      7h 7m CPU     13h15m WALL


   This run was terminated on:   3:43:16  17Jan2024            

=------------------------------------------------------------------------------=
   JOB DONE.
=------------------------------------------------------------------------------=
