
     Program PWSCF v.7.1 starts on 18Jan2024 at  1:38: 2 

     This program is part of the open-source Quantum ESPRESSO suite
     for quantum simulation of materials; please cite
         "P. Giannozzi et al., J. Phys.:Condens. Matter 21 395502 (2009);
         "P. Giannozzi et al., J. Phys.:Condens. Matter 29 465901 (2017);
         "P. Giannozzi et al., J. Chem. Phys. 152 154105 (2020);
          URL http://www.quantum-espresso.org", 
     in publications or presentations arising from this work. More details at
     http://www.quantum-espresso.org/quote

     Parallel version (MPI), running on    88 processors

     MPI processes distributed on     1 nodes
     351058 MiB available memory on the printing compute node when the environment starts

     Reading input from vc-relax2.in

     Current dimensions of program PWSCF are:
     Max number of different atomic species (ntypx) = 10
     Max number of k-points (npk) =  40000
     Max angular momentum in pseudopotentials (lmaxx) =  4
     Message from routine setup:
     using ibrav=0 with symmetry is DISCOURAGED, use correct ibrav instead

     R & G space division:  proc/nbgrp/npool/nimage =      88
     Subspace diagonalization in iterative solution of the eigenvalue problem:
     a serial algorithm will be used


     Parallelization info
     --------------------
     sticks:   dense  smooth     PW     G-vecs:    dense   smooth      PW
     Min          84      84     22                24308    24308    3286
     Max          85      85     23                24351    24351    3305
     Sum        7471    7471   1969              2141731  2141731  290089

     Using Slab Decomposition



     bravais-lattice index     =            0
     lattice parameter (alat)  =       4.9672  a.u.
     unit-cell volume          =    1078.6425 (a.u.)^3
     number of atoms/cell      =            8
     number of atomic types    =            2
     number of electrons       =        44.00
     number of Kohn-Sham states=           26
     kinetic-energy cutoff     =     600.0000  Ry
     charge density cutoff     =    2400.0000  Ry
     scf convergence threshold =      1.0E-12
     mixing beta               =       0.7000
     number of iterations used =            8  plain     mixing
     energy convergence thresh.=      1.0E-06
     force convergence thresh. =      1.0E-05
     press convergence thresh. =      5.0E-02
     Exchange-correlation=  SLA  PW   PBX  PBC
                           (   1   4   3   4   0   0   0)
     nstep                     =           50


     celldm(1)=   4.967223  celldm(2)=   0.000000  celldm(3)=   0.000000
     celldm(4)=   0.000000  celldm(5)=   0.000000  celldm(6)=   0.000000

     crystal axes: (cart. coord. in units of alat)
               a(1) = (   1.000000   0.000000   0.000000 )  
               a(2) = (   0.000000   1.587586   0.000000 )  
               a(3) = (   0.000000   0.000000   5.543695 )  

     reciprocal axes: (cart. coord. in units 2 pi/alat)
               b(1) = (  1.000000  0.000000  0.000000 )  
               b(2) = (  0.000000  0.629887  0.000000 )  
               b(3) = (  0.000000  0.000000  0.180385 )  


     PseudoPot. # 1 for C  read from file:
     ../pseudo/c_pbe_v1.2.uspp.F.UPF
     MD5 check sum: d1aef80898a10debaa0f26306b886e00
     Pseudo is Ultrasoft + core correction, Zval =  4.0
     Generated by new atomic code, or converted to UPF format
     Using radial grid of  721 points,  4 beta functions with: 
                l(1) =   0
                l(2) =   0
                l(3) =   1
                l(4) =   1
     Q(r) pseudized with  8 coefficients,  rinner =    1.100   1.100   1.100


     PseudoPot. # 2 for F  read from file:
     ../pseudo/f_pbe_v1.4.uspp.F.UPF
     MD5 check sum: 4c38b6a325caf53ec0e86aed9459de46
     Pseudo is Ultrasoft, Zval =  7.0
     Generated by new atomic code, or converted to UPF format
     Using radial grid of  799 points,  4 beta functions with: 
                l(1) =   0
                l(2) =   0
                l(3) =   1
                l(4) =   1
     Q(r) pseudized with  8 coefficients,  rinner =    0.950   0.950   0.950


     atomic species   valence    mass     pseudopotential
        C              4.00    12.01070     C ( 1.00)
        F              7.00    18.99840     F ( 1.00)

      8 Sym. Ops., with inversion, found ( 4 have fractional translation)


                                    s                        frac. trans.

      isym =  1     identity                                     

 cryst.   s( 1) = (     1          0          0      )
                  (     0          1          0      )
                  (     0          0          1      )

 cart.    s( 1) = (  1.0000000  0.0000000  0.0000000 )
                  (  0.0000000  1.0000000  0.0000000 )
                  (  0.0000000  0.0000000  1.0000000 )


      isym =  2     180 deg rotation - cart. axis [0,0,1]        

 cryst.   s( 2) = (    -1          0          0      )    f =(  0.5000000 )
                  (     0         -1          0      )       ( -0.5000000 )
                  (     0          0          1      )       (  0.0000000 )

 cart.    s( 2) = ( -1.0000000  0.0000000  0.0000000 )    f =(  0.5000000 )
                  (  0.0000000 -1.0000000  0.0000000 )       ( -0.7937930 )
                  (  0.0000000  0.0000000  1.0000000 )       (  0.0000000 )


      isym =  3     180 deg rotation - cart. axis [0,1,0]        

 cryst.   s( 3) = (    -1          0          0      )    f =(  0.5000000 )
                  (     0          1          0      )       ( -0.5000000 )
                  (     0          0         -1      )       (  0.0000000 )

 cart.    s( 3) = ( -1.0000000  0.0000000  0.0000000 )    f =(  0.5000000 )
                  (  0.0000000  1.0000000  0.0000000 )       ( -0.7937930 )
                  (  0.0000000  0.0000000 -1.0000000 )       (  0.0000000 )


      isym =  4     180 deg rotation - cart. axis [1,0,0]        

 cryst.   s( 4) = (     1          0          0      )
                  (     0         -1          0      )
                  (     0          0         -1      )

 cart.    s( 4) = (  1.0000000  0.0000000  0.0000000 )
                  (  0.0000000 -1.0000000  0.0000000 )
                  (  0.0000000  0.0000000 -1.0000000 )


      isym =  5     inversion                                    

 cryst.   s( 5) = (    -1          0          0      )
                  (     0         -1          0      )
                  (     0          0         -1      )

 cart.    s( 5) = ( -1.0000000  0.0000000  0.0000000 )
                  (  0.0000000 -1.0000000  0.0000000 )
                  (  0.0000000  0.0000000 -1.0000000 )


      isym =  6     inv. 180 deg rotation - cart. axis [0,0,1]   

 cryst.   s( 6) = (     1          0          0      )    f =(  0.5000000 )
                  (     0          1          0      )       ( -0.5000000 )
                  (     0          0         -1      )       (  0.0000000 )

 cart.    s( 6) = (  1.0000000  0.0000000  0.0000000 )    f =(  0.5000000 )
                  (  0.0000000  1.0000000  0.0000000 )       ( -0.7937930 )
                  (  0.0000000  0.0000000 -1.0000000 )       (  0.0000000 )


      isym =  7     inv. 180 deg rotation - cart. axis [0,1,0]   

 cryst.   s( 7) = (     1          0          0      )    f =(  0.5000000 )
                  (     0         -1          0      )       ( -0.5000000 )
                  (     0          0          1      )       (  0.0000000 )

 cart.    s( 7) = (  1.0000000  0.0000000  0.0000000 )    f =(  0.5000000 )
                  (  0.0000000 -1.0000000  0.0000000 )       ( -0.7937930 )
                  (  0.0000000  0.0000000  1.0000000 )       (  0.0000000 )


      isym =  8     inv. 180 deg rotation - cart. axis [1,0,0]   

 cryst.   s( 8) = (    -1          0          0      )
                  (     0          1          0      )
                  (     0          0          1      )

 cart.    s( 8) = ( -1.0000000  0.0000000  0.0000000 )
                  (  0.0000000  1.0000000  0.0000000 )
                  (  0.0000000  0.0000000  1.0000000 )


   Cartesian axes

     site n.     atom                  positions (alat units)
         1           C   tau(   1) = (   0.5000000   0.2236689   0.1966369  )
         2           C   tau(   2) = (   0.0000000   1.0174618  -0.1966369  )
         3           C   tau(   3) = (   0.0000000   0.5701241   0.1966369  )
         4           C   tau(   4) = (   0.5000000   1.3639171  -0.1966369  )
         5           F   tau(   5) = (   0.5000000   0.0000000  -0.6720189  )
         6           F   tau(   6) = (   0.0000000   0.7937930   0.6720189  )
         7           F   tau(   7) = (   0.0000000   0.7937930  -0.6720189  )
         8           F   tau(   8) = (   0.5000000   0.0000000   0.6720189  )

   Crystallographic axes

     site n.     atom                  positions (cryst. coord.)
         1           C   tau(   1) = (  0.5000000  0.1408861  0.0354704  )
         2           C   tau(   2) = (  0.0000000  0.6408861 -0.0354704  )
         3           C   tau(   3) = (  0.0000000  0.3591139  0.0354704  )
         4           C   tau(   4) = (  0.5000000  0.8591139 -0.0354704  )
         5           F   tau(   5) = (  0.5000000  0.0000000 -0.1212222  )
         6           F   tau(   6) = (  0.0000000  0.5000000  0.1212222  )
         7           F   tau(   7) = (  0.0000000  0.5000000 -0.1212222  )
         8           F   tau(   8) = (  0.5000000  0.0000000  0.1212222  )

     number of k points=    25  Marzari-Vanderbilt smearing, width (Ry)=  0.0200
                       cart. coord. in units 2pi/alat
        k(    1) = (   0.0000000   0.0000000   0.0000000), wk =   0.0246914
        k(    2) = (   0.0000000   0.0699875   0.0000000), wk =   0.0493827
        k(    3) = (   0.0000000   0.1399749   0.0000000), wk =   0.0493827
        k(    4) = (   0.0000000   0.2099624   0.0000000), wk =   0.0493827
        k(    5) = (   0.0000000   0.2799499   0.0000000), wk =   0.0493827
        k(    6) = (   0.1111111   0.0000000   0.0000000), wk =   0.0493827
        k(    7) = (   0.1111111   0.0699875   0.0000000), wk =   0.0987654
        k(    8) = (   0.1111111   0.1399749   0.0000000), wk =   0.0987654
        k(    9) = (   0.1111111   0.2099624   0.0000000), wk =   0.0987654
        k(   10) = (   0.1111111   0.2799499   0.0000000), wk =   0.0987654
        k(   11) = (   0.2222222   0.0000000   0.0000000), wk =   0.0493827
        k(   12) = (   0.2222222   0.0699875   0.0000000), wk =   0.0987654
        k(   13) = (   0.2222222   0.1399749   0.0000000), wk =   0.0987654
        k(   14) = (   0.2222222   0.2099624   0.0000000), wk =   0.0987654
        k(   15) = (   0.2222222   0.2799499   0.0000000), wk =   0.0987654
        k(   16) = (   0.3333333   0.0000000   0.0000000), wk =   0.0493827
        k(   17) = (   0.3333333   0.0699875   0.0000000), wk =   0.0987654
        k(   18) = (   0.3333333   0.1399749   0.0000000), wk =   0.0987654
        k(   19) = (   0.3333333   0.2099624   0.0000000), wk =   0.0987654
        k(   20) = (   0.3333333   0.2799499   0.0000000), wk =   0.0987654
        k(   21) = (   0.4444444   0.0000000   0.0000000), wk =   0.0493827
        k(   22) = (   0.4444444   0.0699875   0.0000000), wk =   0.0987654
        k(   23) = (   0.4444444   0.1399749   0.0000000), wk =   0.0987654
        k(   24) = (   0.4444444   0.2099624   0.0000000), wk =   0.0987654
        k(   25) = (   0.4444444   0.2799499   0.0000000), wk =   0.0987654

                       cryst. coord.
        k(    1) = (   0.0000000   0.0000000   0.0000000), wk =   0.0246914
        k(    2) = (   0.0000000   0.1111111   0.0000000), wk =   0.0493827
        k(    3) = (   0.0000000   0.2222222   0.0000000), wk =   0.0493827
        k(    4) = (   0.0000000   0.3333333   0.0000000), wk =   0.0493827
        k(    5) = (   0.0000000   0.4444444   0.0000000), wk =   0.0493827
        k(    6) = (   0.1111111   0.0000000   0.0000000), wk =   0.0493827
        k(    7) = (   0.1111111   0.1111111   0.0000000), wk =   0.0987654
        k(    8) = (   0.1111111   0.2222222   0.0000000), wk =   0.0987654
        k(    9) = (   0.1111111   0.3333333   0.0000000), wk =   0.0987654
        k(   10) = (   0.1111111   0.4444444   0.0000000), wk =   0.0987654
        k(   11) = (   0.2222222   0.0000000   0.0000000), wk =   0.0493827
        k(   12) = (   0.2222222   0.1111111   0.0000000), wk =   0.0987654
        k(   13) = (   0.2222222   0.2222222   0.0000000), wk =   0.0987654
        k(   14) = (   0.2222222   0.3333333   0.0000000), wk =   0.0987654
        k(   15) = (   0.2222222   0.4444444   0.0000000), wk =   0.0987654
        k(   16) = (   0.3333333   0.0000000   0.0000000), wk =   0.0493827
        k(   17) = (   0.3333333   0.1111111   0.0000000), wk =   0.0987654
        k(   18) = (   0.3333333   0.2222222   0.0000000), wk =   0.0987654
        k(   19) = (   0.3333333   0.3333333   0.0000000), wk =   0.0987654
        k(   20) = (   0.3333333   0.4444444   0.0000000), wk =   0.0987654
        k(   21) = (   0.4444444   0.0000000   0.0000000), wk =   0.0493827
        k(   22) = (   0.4444444   0.1111111   0.0000000), wk =   0.0987654
        k(   23) = (   0.4444444   0.2222222   0.0000000), wk =   0.0987654
        k(   24) = (   0.4444444   0.3333333   0.0000000), wk =   0.0987654
        k(   25) = (   0.4444444   0.4444444   0.0000000), wk =   0.0987654

     Dense  grid:  2141731 G-vectors     FFT dimensions: (  80, 128, 432)

     Dynamical RAM for                 wfc:       1.21 MB

     Dynamical RAM for     wfc (w. buffer):      31.38 MB

     Dynamical RAM for           str. fact:       0.74 MB

     Dynamical RAM for           local pot:       0.00 MB

     Dynamical RAM for          nlocal pot:       2.97 MB

     Dynamical RAM for                qrad:       4.49 MB

     Dynamical RAM for          rho,v,vnew:       2.29 MB

     Dynamical RAM for               rhoin:       0.76 MB

     Dynamical RAM for            rho*nmix:       5.94 MB

     Dynamical RAM for           G-vectors:       1.58 MB

     Dynamical RAM for          h,s,v(r/c):       0.12 MB

     Dynamical RAM for          <psi|beta>:       0.03 MB

     Dynamical RAM for                 psi:       2.41 MB

     Dynamical RAM for                hpsi:       2.41 MB

     Dynamical RAM for                spsi:       2.41 MB

     Dynamical RAM for      wfcinit/wfcrot:       2.99 MB

     Dynamical RAM for           addusdens:      17.44 MB

     Dynamical RAM for          addusforce:      19.86 MB

     Dynamical RAM for         addusstress:      18.56 MB

     Estimated static dynamical RAM per process >      47.27 MB

     Estimated max dynamical RAM per process >      73.07 MB

     Estimated total dynamical RAM >       6.28 GB

     Initial potential from superposition of free atoms

     starting charge      43.9998, renormalised to      44.0000

     negative rho (up, down):  1.097E-03 0.000E+00
     Starting wfcs are   32 randomized atomic wfcs

     total cpu time spent up to now is       80.0 secs

     Self-consistent Calculation

     iteration #  1     ecut=   600.00 Ry     beta= 0.70
     Davidson diagonalization with overlap

---- Real-time Memory Report at c_bands before calling an iterative solver
           127 MiB given to the printing process from OS
             0 MiB allocation reported by mallinfo(arena+hblkhd)
        345882 MiB available memory on the node where the printing process lives
------------------
     ethr =  1.00E-02,  avg # of iterations =  3.1

     Threshold (ethr) on eigenvalues was too large:
     Diagonalizing with lowered threshold

     Davidson diagonalization with overlap

---- Real-time Memory Report at c_bands before calling an iterative solver
           141 MiB given to the printing process from OS
             0 MiB allocation reported by mallinfo(arena+hblkhd)
        344348 MiB available memory on the node where the printing process lives
------------------
     ethr =  9.94E-04,  avg # of iterations =  1.0

     negative rho (up, down):  2.917E-04 0.000E+00

     total cpu time spent up to now is      599.1 secs

     total energy              =    -240.13687638 Ry
     estimated scf accuracy    <       0.42534559 Ry

     iteration #  2     ecut=   600.00 Ry     beta= 0.70
     Davidson diagonalization with overlap

---- Real-time Memory Report at c_bands before calling an iterative solver
           147 MiB given to the printing process from OS
             0 MiB allocation reported by mallinfo(arena+hblkhd)
        344090 MiB available memory on the node where the printing process lives
------------------
     ethr =  9.67E-04,  avg # of iterations =  3.1

     negative rho (up, down):  1.666E-04 0.000E+00

     total cpu time spent up to now is      950.6 secs

     total energy              =    -240.15561770 Ry
     estimated scf accuracy    <       0.32196275 Ry

     iteration #  3     ecut=   600.00 Ry     beta= 0.70
     Davidson diagonalization with overlap

---- Real-time Memory Report at c_bands before calling an iterative solver
           148 MiB given to the printing process from OS
             0 MiB allocation reported by mallinfo(arena+hblkhd)
        344027 MiB available memory on the node where the printing process lives
------------------
     ethr =  7.32E-04,  avg # of iterations =  2.5

     negative rho (up, down):  3.010E-05 0.000E+00

     total cpu time spent up to now is     1244.1 secs

     total energy              =    -240.24248149 Ry
     estimated scf accuracy    <       0.02801367 Ry

     iteration #  4     ecut=   600.00 Ry     beta= 0.70
     Davidson diagonalization with overlap

---- Real-time Memory Report at c_bands before calling an iterative solver
           149 MiB given to the printing process from OS
             0 MiB allocation reported by mallinfo(arena+hblkhd)
        343922 MiB available memory on the node where the printing process lives
------------------
     ethr =  6.37E-05,  avg # of iterations =  3.5

     negative rho (up, down):  5.724E-06 0.000E+00

     total cpu time spent up to now is     1596.2 secs

     total energy              =    -240.24613292 Ry
     estimated scf accuracy    <       0.00095897 Ry

     iteration #  5     ecut=   600.00 Ry     beta= 0.70
     Davidson diagonalization with overlap

---- Real-time Memory Report at c_bands before calling an iterative solver
           149 MiB given to the printing process from OS
             0 MiB allocation reported by mallinfo(arena+hblkhd)
        343861 MiB available memory on the node where the printing process lives
------------------
     ethr =  2.18E-06,  avg # of iterations =  6.0

     negative rho (up, down):  5.061E-06 0.000E+00

     total cpu time spent up to now is     2137.3 secs

     total energy              =    -240.24642282 Ry
     estimated scf accuracy    <       0.00002575 Ry

     iteration #  6     ecut=   600.00 Ry     beta= 0.70
     Davidson diagonalization with overlap

---- Real-time Memory Report at c_bands before calling an iterative solver
           150 MiB given to the printing process from OS
             0 MiB allocation reported by mallinfo(arena+hblkhd)
        343802 MiB available memory on the node where the printing process lives
------------------
     ethr =  5.85E-08,  avg # of iterations =  3.0

     negative rho (up, down):  5.213E-06 0.000E+00

     total cpu time spent up to now is     2465.2 secs

     total energy              =    -240.24642530 Ry
     estimated scf accuracy    <       0.00000452 Ry

     iteration #  7     ecut=   600.00 Ry     beta= 0.70
     Davidson diagonalization with overlap

---- Real-time Memory Report at c_bands before calling an iterative solver
           151 MiB given to the printing process from OS
             0 MiB allocation reported by mallinfo(arena+hblkhd)
        343743 MiB available memory on the node where the printing process lives
------------------
     ethr =  1.03E-08,  avg # of iterations =  2.5

     negative rho (up, down):  5.205E-06 0.000E+00

     total cpu time spent up to now is     2758.2 secs

     total energy              =    -240.24642674 Ry
     estimated scf accuracy    <       0.00000053 Ry

     iteration #  8     ecut=   600.00 Ry     beta= 0.70
     Davidson diagonalization with overlap

---- Real-time Memory Report at c_bands before calling an iterative solver
           152 MiB given to the printing process from OS
             0 MiB allocation reported by mallinfo(arena+hblkhd)
        343662 MiB available memory on the node where the printing process lives
------------------
     ethr =  1.21E-09,  avg # of iterations =  2.0

     negative rho (up, down):  5.204E-06 0.000E+00

     total cpu time spent up to now is     3010.6 secs

     total energy              =    -240.24642681 Ry
     estimated scf accuracy    <       0.00000003 Ry

     iteration #  9     ecut=   600.00 Ry     beta= 0.70
     Davidson diagonalization with overlap

---- Real-time Memory Report at c_bands before calling an iterative solver
           152 MiB given to the printing process from OS
             0 MiB allocation reported by mallinfo(arena+hblkhd)
        343614 MiB available memory on the node where the printing process lives
------------------
     ethr =  5.82E-11,  avg # of iterations =  3.4

     negative rho (up, down):  5.204E-06 0.000E+00

     total cpu time spent up to now is     3368.2 secs

     total energy              =    -240.24642682 Ry
     estimated scf accuracy    <          1.8E-09 Ry

     iteration # 10     ecut=   600.00 Ry     beta= 0.70
     Davidson diagonalization with overlap

---- Real-time Memory Report at c_bands before calling an iterative solver
           153 MiB given to the printing process from OS
             0 MiB allocation reported by mallinfo(arena+hblkhd)
        343545 MiB available memory on the node where the printing process lives
------------------
     ethr =  4.02E-12,  avg # of iterations =  2.6

     negative rho (up, down):  5.203E-06 0.000E+00

     total cpu time spent up to now is     3667.7 secs

     total energy              =    -240.24642682 Ry
     estimated scf accuracy    <          1.2E-10 Ry

     iteration # 11     ecut=   600.00 Ry     beta= 0.70
     Davidson diagonalization with overlap

---- Real-time Memory Report at c_bands before calling an iterative solver
           153 MiB given to the printing process from OS
             0 MiB allocation reported by mallinfo(arena+hblkhd)
        343193 MiB available memory on the node where the printing process lives
------------------
     ethr =  2.65E-13,  avg # of iterations =  2.4

     negative rho (up, down):  5.203E-06 0.000E+00

     total cpu time spent up to now is     3963.8 secs

     total energy              =    -240.24642682 Ry
     estimated scf accuracy    <          5.3E-12 Ry

     iteration # 12     ecut=   600.00 Ry     beta= 0.70
     Davidson diagonalization with overlap

---- Real-time Memory Report at c_bands before calling an iterative solver
           153 MiB given to the printing process from OS
             0 MiB allocation reported by mallinfo(arena+hblkhd)
        342427 MiB available memory on the node where the printing process lives
------------------
     ethr =  1.00E-13,  avg # of iterations =  1.6

     negative rho (up, down):  5.203E-06 0.000E+00

     total cpu time spent up to now is     4185.5 secs

     End of self-consistent calculation

          k = 0.0000 0.0000 0.0000 (267837 PWs)   bands (ev):

   -28.1356 -27.8516 -26.6163 -26.4984 -18.7992 -15.5277 -13.5197 -11.1275
   -10.3289  -9.9347  -8.6450  -8.2510  -7.5922  -7.5387  -7.2642  -5.4083
    -5.2651  -5.1944  -4.5651  -4.2620  -4.0177  -2.7013   0.8353   3.3024
     3.4360   4.4757

     occupation numbers 
     1.0000   1.0000   1.0000   1.0000   1.0000   1.0000   1.0000   1.0000
     1.0000   1.0000   1.0000   1.0000   1.0000   1.0000   1.0000   1.0000
     1.0000   1.0000   1.0000   1.0000   1.0000   1.0000   0.0000   0.0000
     0.0000   0.0000

          k = 0.0000 0.0700 0.0000 (267841 PWs)   bands (ev):

   -28.1035 -27.8268 -26.6561 -26.5351 -18.7372 -15.7400 -13.3504 -11.0808
   -10.2073  -9.9806  -8.5944  -8.2607  -7.6892  -7.4480  -7.2747  -5.4637
    -5.3373  -5.3056  -4.6230  -4.2134  -3.9739  -2.7483   0.9833   3.3294
     3.4315   4.6569

     occupation numbers 
     1.0000   1.0000   1.0000   1.0000   1.0000   1.0000   1.0000   1.0000
     1.0000   1.0000   1.0000   1.0000   1.0000   1.0000   1.0000   1.0000
     1.0000   1.0000   1.0000   1.0000   1.0000   1.0000   0.0000   0.0000
     0.0000   0.0000

          k = 0.0000 0.1400 0.0000 (267791 PWs)   bands (ev):

   -28.0117 -27.7594 -26.7627 -26.6367 -18.5530 -16.2259 -12.9649 -11.0201
   -10.0359  -9.8919  -8.4474  -8.3033  -7.9599  -7.3222  -7.2020  -5.6430
    -5.5930  -5.4107  -4.7447  -4.1843  -3.8547  -2.8765   1.3834   3.4030
     3.4090   5.1655

     occupation numbers 
     1.0000   1.0000   1.0000   1.0000   1.0000   1.0000   1.0000   1.0000
     1.0000   1.0000   1.0000   1.0000   1.0000   1.0000   1.0000   1.0000
     1.0000   1.0000   1.0000   1.0000   1.0000   1.0000   0.0000   0.0000
     0.0000   0.0000

          k = 0.0000 0.2100 0.0000 (267682 PWs)   bands (ev):

   -27.8758 -27.6773 -26.8946 -26.7781 -18.2526 -16.7952 -12.4965 -11.1612
    -9.8809  -9.4970  -8.4133  -8.3605  -8.2199  -7.4450  -6.8620  -5.9646
    -5.7083  -5.5449  -4.8157  -4.2898  -3.6837  -3.0583   1.9368   3.2979
     3.5393   4.4195

     occupation numbers 
     1.0000   1.0000   1.0000   1.0000   1.0000   1.0000   1.0000   1.0000
     1.0000   1.0000   1.0000   1.0000   1.0000   1.0000   1.0000   1.0000
     1.0000   1.0000   1.0000   1.0000   1.0000   1.0000   0.0000   0.0000
     0.0000   0.0000

          k = 0.0000 0.2799 0.0000 (267762 PWs)   bands (ev):

   -27.7309 -27.6474 -26.9692 -26.9141 -17.8466 -17.3516 -12.0026 -11.5314
    -9.5043  -9.2221  -8.7273  -8.6122  -7.9421  -7.6634  -6.5282  -6.2475
    -5.7351  -5.6678  -4.7363  -4.5154  -3.4819  -3.2674   2.5288   3.0207
     3.7276   4.0133

     occupation numbers 
     1.0000   1.0000   1.0000   1.0000   1.0000   1.0000   1.0000   1.0000
     1.0000   1.0000   1.0000   1.0000   1.0000   1.0000   1.0000   1.0000
     1.0000   1.0000   1.0000   1.0000   1.0000   1.0000   0.0000   0.0000
     0.0000   0.0000

          k = 0.1111 0.0000 0.0000 (267841 PWs)   bands (ev):

   -28.0517 -27.7779 -26.6138 -26.4980 -18.6448 -15.3762 -13.4590 -11.0004
   -10.2538  -9.9545  -9.3339  -8.3530  -7.7210  -7.5572  -7.4462  -5.7511
    -5.5514  -5.2917  -4.6869  -4.3344  -4.1586  -3.2394   1.0788   4.0919
     4.2338   4.4305

     occupation numbers 
     1.0000   1.0000   1.0000   1.0000   1.0000   1.0000   1.0000   1.0000
     1.0000   1.0000   1.0000   1.0000   1.0000   1.0000   1.0000   1.0000
     1.0000   1.0000   1.0000   1.0000   1.0000   1.0000   0.0000   0.0000
     0.0000   0.0000

          k = 0.1111 0.0700 0.0000 (267768 PWs)   bands (ev):

   -28.0209 -27.7542 -26.6508 -26.5323 -18.5834 -15.5940 -13.2865 -10.9659
   -10.1534 -10.0020  -9.2731  -8.3770  -7.7344  -7.6567  -7.3588  -5.8337
    -5.5849  -5.2875  -4.6941  -4.3123  -4.1708  -3.3003   1.2076   4.2280
     4.2577   4.4484

     occupation numbers 
     1.0000   1.0000   1.0000   1.0000   1.0000   1.0000   1.0000   1.0000
     1.0000   1.0000   1.0000   1.0000   1.0000   1.0000   1.0000   1.0000
     1.0000   1.0000   1.0000   1.0000   1.0000   1.0000   0.0000   0.0000
     0.0000   0.0000

          k = 0.1111 0.1400 0.0000 (267734 PWs)   bands (ev):

   -27.9330 -27.6899 -26.7503 -26.6276 -18.4010 -16.0855 -12.9033 -10.9409
   -10.0620  -9.9097  -9.0912  -8.4601  -7.9153  -7.7777  -7.1256  -5.9519
    -5.6568  -5.3943  -4.7441  -4.2223  -4.2184  -3.4380   1.5666   4.1750
     4.4973   4.6440

     occupation numbers 
     1.0000   1.0000   1.0000   1.0000   1.0000   1.0000   1.0000   1.0000
     1.0000   1.0000   1.0000   1.0000   1.0000   1.0000   1.0000   1.0000
     1.0000   1.0000   1.0000   1.0000   1.0000   1.0000   0.0000   0.0000
     0.0000   0.0000

          k = 0.1111 0.2100 0.0000 (267747 PWs)   bands (ev):

   -27.8029 -27.6117 -26.8735 -26.7606 -18.1035 -16.6555 -12.4471 -11.1202
    -9.9340  -9.6426  -8.8491  -8.6124  -8.2195  -7.8613  -6.7991  -6.0053
    -5.7246  -5.6446  -4.8050  -4.3680  -4.0594  -3.5769   2.0923   3.9155
     4.5631   4.7424

     occupation numbers 
     1.0000   1.0000   1.0000   1.0000   1.0000   1.0000   1.0000   1.0000
     1.0000   1.0000   1.0000   1.0000   1.0000   1.0000   1.0000   1.0000
     1.0000   1.0000   1.0000   1.0000   1.0000   1.0000   0.0000   0.0000
     0.0000   0.0000

          k = 0.1111 0.2799 0.0000 (267740 PWs)   bands (ev):

   -27.6642 -27.5839 -26.9424 -26.8892 -17.7009 -17.2095 -11.9674 -11.5025
    -9.6448  -9.4851  -8.8307  -8.7911  -8.2238  -8.0118  -6.4490  -6.1316
    -5.8176  -5.7823  -4.7701  -4.5921  -3.8793  -3.7146   2.7156   3.3650
     4.6252   4.6742

     occupation numbers 
     1.0000   1.0000   1.0000   1.0000   1.0000   1.0000   1.0000   1.0000
     1.0000   1.0000   1.0000   1.0000   1.0000   1.0000   1.0000   1.0000
     1.0000   1.0000   1.0000   1.0000   1.0000   1.0000   0.0000   0.0000
     0.0000   0.0000

          k = 0.2222 0.0000 0.0000 (267717 PWs)   bands (ev):

   -27.8184 -27.5734 -26.6242 -26.5120 -18.1849 -14.9288 -13.3956 -10.6699
   -10.6446 -10.1258 -10.0555  -8.7508  -8.7053  -7.6874  -7.2054  -6.2206
    -6.1593  -5.6744  -5.2671  -4.6020  -4.2040  -4.1721   1.6704   3.8110
     5.6006   6.0363

     occupation numbers 
     1.0000   1.0000   1.0000   1.0000   1.0000   1.0000   1.0000   1.0000
     1.0000   1.0000   1.0000   1.0000   1.0000   1.0000   1.0000   1.0000
     1.0000   1.0000   1.0000   1.0000   1.0000   1.0000   0.0000   0.0000
     0.0000   0.0000

          k = 0.2222 0.0700 0.0000 (267716 PWs)   bands (ev):

   -27.7918 -27.5531 -26.6534 -26.5396 -18.1255 -15.1651 -13.2208 -10.6578
   -10.6561 -10.1980  -9.9111  -8.9080  -8.5572  -7.8025  -7.1507  -6.2482
    -6.1521  -5.5658  -5.2014  -4.5974  -4.3257  -4.1938   1.7626   3.9734
     5.5775   6.0749

     occupation numbers 
     1.0000   1.0000   1.0000   1.0000   1.0000   1.0000   1.0000   1.0000
     1.0000   1.0000   1.0000   1.0000   1.0000   1.0000   1.0000   1.0000
     1.0000   1.0000   1.0000   1.0000   1.0000   1.0000   0.0000   0.0000
     0.0000   0.0000

          k = 0.2222 0.1400 0.0000 (267724 PWs)   bands (ev):

   -27.7157 -27.4984 -26.7321 -26.6164 -17.9489 -15.6724 -12.8665 -10.7910
   -10.5908 -10.3004  -9.5680  -9.0683  -8.4174  -8.0732  -6.9922  -6.2456
    -6.1332  -5.4268  -5.0646  -4.5753  -4.5746  -4.2778   2.0365   4.3770
     5.4238   5.9724

     occupation numbers 
     1.0000   1.0000   1.0000   1.0000   1.0000   1.0000   1.0000   1.0000
     1.0000   1.0000   1.0000   1.0000   1.0000   1.0000   1.0000   1.0000
     1.0000   1.0000   1.0000   1.0000   1.0000   1.0000   0.0000   0.0000
     0.0000   0.0000

          k = 0.2222 0.2100 0.0000 (267819 PWs)   bands (ev):

   -27.6036 -27.4329 -26.8293 -26.7249 -17.6602 -16.2423 -12.4677 -11.1434
   -10.4735 -10.2891  -9.2250  -9.1830  -8.3349  -8.3263  -6.7393  -6.1824
    -6.0957  -5.5447  -4.9831  -4.7941  -4.5001  -4.3305   2.4815   4.4371
     5.3694   5.9534

     occupation numbers 
     1.0000   1.0000   1.0000   1.0000   1.0000   1.0000   1.0000   1.0000
     1.0000   1.0000   1.0000   1.0000   1.0000   1.0000   1.0000   1.0000
     1.0000   1.0000   1.0000   1.0000   1.0000   1.0000   0.0000   0.0000
     0.0000   0.0000

          k = 0.2222 0.2799 0.0000 (267696 PWs)   bands (ev):

   -27.4839 -27.4123 -26.8806 -26.8321 -17.2685 -16.7881 -12.0408 -11.5893
   -10.3470 -10.2760  -9.2024  -9.1347  -8.3839  -8.3162  -6.4086  -6.1553
    -6.0358  -5.8775  -4.9769  -4.9303  -4.3925  -4.3370   3.0762   3.7776
     5.7934   6.0462

     occupation numbers 
     1.0000   1.0000   1.0000   1.0000   1.0000   1.0000   1.0000   1.0000
     1.0000   1.0000   1.0000   1.0000   1.0000   1.0000   1.0000   1.0000
     1.0000   1.0000   1.0000   1.0000   1.0000   1.0000   0.0000   0.0000
     0.0000   0.0000

          k = 0.3333 0.0000 0.0000 (267635 PWs)   bands (ev):

   -27.4893 -27.2852 -26.6923 -26.5783 -17.4294 -14.2070 -13.9031 -11.4326
   -10.9010 -10.2117  -9.8117  -9.3693  -9.3231  -8.0437  -7.0959  -6.4342
    -6.3998  -6.3418  -5.8817  -4.8987  -4.7596  -4.4931   2.4287   4.0009
     5.6273   6.9648

     occupation numbers 
     1.0000   1.0000   1.0000   1.0000   1.0000   1.0000   1.0000   1.0000
     1.0000   1.0000   1.0000   1.0000   1.0000   1.0000   1.0000   1.0000
     1.0000   1.0000   1.0000   1.0000   1.0000   1.0000   0.0000   0.0000
     0.0000   0.0000

          k = 0.3333 0.0700 0.0000 (267609 PWs)   bands (ev):

   -27.4699 -27.2711 -26.7097 -26.5957 -17.3736 -14.5142 -13.7215 -11.3309
   -11.0909 -10.2536  -9.7392  -9.5098  -9.0541  -8.1615  -7.0054  -6.5054
    -6.4269  -6.1784  -5.7385  -5.0472  -4.7290  -4.4596   2.4915   4.1058
     5.5857   6.9496

     occupation numbers 
     1.0000   1.0000   1.0000   1.0000   1.0000   1.0000   1.0000   1.0000
     1.0000   1.0000   1.0000   1.0000   1.0000   1.0000   1.0000   1.0000
     1.0000   1.0000   1.0000   1.0000   1.0000   1.0000   0.0000   0.0000
     0.0000   0.0000

          k = 0.3333 0.1400 0.0000 (267630 PWs)   bands (ev):

   -27.4148 -27.2337 -26.7563 -26.6445 -17.2073 -15.0298 -13.4901 -11.5210
   -11.1122 -10.3634  -9.5846  -9.5684  -8.7353  -8.3500  -6.8476  -6.5526
    -6.3999  -5.8800  -5.4914  -5.3235  -4.6541  -4.4787   2.6899   4.3724
     5.4388   6.2746

     occupation numbers 
     1.0000   1.0000   1.0000   1.0000   1.0000   1.0000   1.0000   1.0000
     1.0000   1.0000   1.0000   1.0000   1.0000   1.0000   1.0000   1.0000
     1.0000   1.0000   1.0000   1.0000   1.0000   1.0000   0.0000   0.0000
     0.0000   0.0000

          k = 0.3333 0.2100 0.0000 (267635 PWs)   bands (ev):

   -27.3337 -27.1919 -26.8118 -26.7153 -16.9348 -15.5823 -13.2262 -12.0164
   -10.8935 -10.4804  -9.6021  -9.5161  -8.4802  -8.3953  -6.7438  -6.4127
    -6.4032  -5.5888  -5.5660  -5.3205  -4.5791  -4.5599   3.0437   4.5389
     5.2568   5.8730

     occupation numbers 
     1.0000   1.0000   1.0000   1.0000   1.0000   1.0000   1.0000   1.0000
     1.0000   1.0000   1.0000   1.0000   1.0000   1.0000   1.0000   1.0000
     1.0000   1.0000   1.0000   1.0000   1.0000   1.0000   0.0000   0.0000
     0.0000   0.0000

          k = 0.3333 0.2799 0.0000 (267709 PWs)   bands (ev):

   -27.2460 -27.1873 -26.8323 -26.7894 -16.5635 -16.1058 -12.8954 -12.4880
   -10.7185 -10.5890  -9.6103  -9.5672  -8.3405  -8.3326  -6.6428  -6.5068
    -6.1234  -5.8144  -5.3832  -5.2907  -4.5825  -4.5553   3.5531   4.1457
     5.3721   5.5860

     occupation numbers 
     1.0000   1.0000   1.0000   1.0000   1.0000   1.0000   1.0000   1.0000
     1.0000   1.0000   1.0000   1.0000   1.0000   1.0000   1.0000   1.0000
     1.0000   1.0000   1.0000   1.0000   1.0000   1.0000   0.0000   0.0000
     0.0000   0.0000

          k = 0.4444 0.0000 0.0000 (267618 PWs)   bands (ev):

   -27.1439 -26.9822 -26.8629 -26.7334 -16.3966 -15.1398 -13.2466 -12.1012
   -11.1724 -10.5368  -9.6193  -9.4963  -9.2030  -8.5851  -7.2036  -6.9473
    -6.3890  -6.2508  -6.0324  -5.4849  -4.8510  -4.7744   3.3253   4.4163
     4.6991   5.8248

     occupation numbers 
     1.0000   1.0000   1.0000   1.0000   1.0000   1.0000   1.0000   1.0000
     1.0000   1.0000   1.0000   1.0000   1.0000   1.0000   1.0000   1.0000
     1.0000   1.0000   1.0000   1.0000   1.0000   1.0000   0.0000   0.0000
     0.0000   0.0000

          k = 0.4444 0.0700 0.0000 (267648 PWs)   bands (ev):

   -27.1352 -26.9780 -26.8656 -26.7387 -16.3467 -15.1068 -13.4463 -12.3183
   -11.0415 -10.4551  -9.6622  -9.6378  -9.0039  -8.6028  -7.0665  -6.8181
    -6.4483  -6.4255  -5.8534  -5.5461  -4.7949  -4.7050   3.3702   4.4410
     4.7033   5.6838

     occupation numbers 
     1.0000   1.0000   1.0000   1.0000   1.0000   1.0000   1.0000   1.0000
     1.0000   1.0000   1.0000   1.0000   1.0000   1.0000   1.0000   1.0000
     1.0000   1.0000   1.0000   1.0000   1.0000   1.0000   0.0000   0.0000
     0.0000   0.0000

          k = 0.4444 0.1400 0.0000 (267647 PWs)   bands (ev):

   -27.1105 -26.9699 -26.8702 -26.7544 -16.1983 -15.0264 -13.8640 -12.7890
   -10.8105 -10.3778  -9.8457  -9.7233  -8.6995  -8.5458  -6.7565  -6.6822
    -6.5523  -6.4854  -5.6438  -5.5967  -4.6812  -4.6211   3.5140   4.4847
     4.7636   5.4229

     occupation numbers 
     1.0000   1.0000   1.0000   1.0000   1.0000   1.0000   1.0000   1.0000
     1.0000   1.0000   1.0000   1.0000   1.0000   1.0000   1.0000   1.0000
     1.0000   1.0000   1.0000   1.0000   1.0000   1.0000   0.0000   0.0000
     0.0000   0.0000

          k = 0.4444 0.2100 0.0000 (267683 PWs)   bands (ev):

   -27.0745 -26.9727 -26.8646 -26.7791 -15.9561 -15.0130 -14.1836 -13.3051
   -10.6449 -10.4211  -9.9261  -9.8494  -8.4350  -8.3903  -6.8631  -6.7306
    -6.3529  -6.0748  -5.5881  -5.5061  -4.6218  -4.6109   3.7609   4.4310
     4.9908   5.2382

     occupation numbers 
     1.0000   1.0000   1.0000   1.0000   1.0000   1.0000   1.0000   1.0000
     1.0000   1.0000   1.0000   1.0000   1.0000   1.0000   1.0000   1.0000
     1.0000   1.0000   1.0000   1.0000   1.0000   1.0000   0.0000   0.0000
     0.0000   0.0000

          k = 0.4444 0.2799 0.0000 (267651 PWs)   bands (ev):

   -27.0338 -26.9965 -26.8415 -26.8099 -15.6328 -15.2682 -14.1103 -13.7682
   -10.5584 -10.4973  -9.9490  -9.9314  -8.2832  -8.2734  -6.9247  -6.8740
    -5.9642  -5.7452  -5.6418  -5.5061  -4.6477  -4.6222   4.0536   4.2860
     5.2065   5.2091

     occupation numbers 
     1.0000   1.0000   1.0000   1.0000   1.0000   1.0000   1.0000   1.0000
     1.0000   1.0000   1.0000   1.0000   1.0000   1.0000   1.0000   1.0000
     1.0000   1.0000   1.0000   1.0000   1.0000   1.0000   0.0000   0.0000
     0.0000   0.0000

     the Fermi energy is    -0.4497 ev

!    total energy              =    -240.24642682 Ry
     estimated scf accuracy    <          6.0E-13 Ry
     smearing contrib. (-TS)   =      -0.00000000 Ry
     internal energy E=F+TS    =    -240.24642682 Ry

     The total energy is F=E-TS. E is the sum of the following terms:
     one-electron contribution =   -1261.21922517 Ry
     hartree contribution      =     644.43676536 Ry
     xc contribution           =     -51.69321758 Ry
     ewald contribution        =     428.22925057 Ry

     convergence has been achieved in  12 iterations

     negative rho (up, down):  5.203E-06 0.000E+00

     Forces acting on atoms (cartesian axes, Ry/au):

     atom    1 type  1   force =     0.00000000   -0.00006214    0.00002453
     atom    2 type  1   force =     0.00000000   -0.00006214   -0.00002453
     atom    3 type  1   force =     0.00000000    0.00006214    0.00002453
     atom    4 type  1   force =     0.00000000    0.00006214   -0.00002453
     atom    5 type  2   force =     0.00000000   -0.01045730    0.00002258
     atom    6 type  2   force =     0.00000000   -0.01045730   -0.00002258
     atom    7 type  2   force =     0.00000000    0.01045730    0.00002258
     atom    8 type  2   force =     0.00000000    0.01045730   -0.00002258
     The non-local contrib.  to forces
     atom    1 type  1   force =     0.00000000   -0.16679774    0.36463388
     atom    2 type  1   force =    -0.00000000   -0.16679774   -0.36463388
     atom    3 type  1   force =     0.00000000    0.16679774    0.36463388
     atom    4 type  1   force =     0.00000000    0.16679774   -0.36463388
     atom    5 type  2   force =     0.00000000   -1.02289938    2.26149850
     atom    6 type  2   force =     0.00000000   -1.02289938   -2.26149850
     atom    7 type  2   force =     0.00000000    1.02289938    2.26149850
     atom    8 type  2   force =     0.00000000    1.02289938   -2.26149850
     The ionic contribution  to forces
     atom    1 type  1   force =    -0.00000000    1.00115620    2.94504668
     atom    2 type  1   force =    -0.00000000    1.00115620   -2.94504668
     atom    3 type  1   force =     0.00000000   -1.00115620    2.94504668
     atom    4 type  1   force =     0.00000000   -1.00115620   -2.94504668
     atom    5 type  2   force =     0.00000000    3.87389756  -44.60623718
     atom    6 type  2   force =    -0.00000000    3.87389756   44.60623718
     atom    7 type  2   force =     0.00000000   -3.87389756  -44.60623718
     atom    8 type  2   force =     0.00000000   -3.87389756   44.60623718
     The local contribution  to forces
     atom    1 type  1   force =     0.00000000   -0.83543315   -3.30696593
     atom    2 type  1   force =     0.00000000   -0.83543315    3.30696593
     atom    3 type  1   force =    -0.00000000    0.83543315   -3.30696593
     atom    4 type  1   force =    -0.00000000    0.83543315    3.30696593
     atom    5 type  2   force =     0.00000000   -2.86145594   42.34476283
     atom    6 type  2   force =     0.00000000   -2.86145594  -42.34476283
     atom    7 type  2   force =     0.00000000    2.86145594   42.34476283
     atom    8 type  2   force =     0.00000000    2.86145594  -42.34476283
     The core correction contribution to forces
     atom    1 type  1   force =     0.00000000    0.00101261   -0.00269044
     atom    2 type  1   force =     0.00000000    0.00101261    0.00269044
     atom    3 type  1   force =    -0.00000000   -0.00101261   -0.00269044
     atom    4 type  1   force =    -0.00000000   -0.00101261    0.00269044
     atom    5 type  2   force =     0.00000000    0.00000000    0.00000000
     atom    6 type  2   force =     0.00000000    0.00000000    0.00000000
     atom    7 type  2   force =     0.00000000    0.00000000    0.00000000
     atom    8 type  2   force =     0.00000000    0.00000000    0.00000000
     The Hubbard contrib.    to forces
     atom    1 type  1   force =     0.00000000    0.00000000    0.00000000
     atom    2 type  1   force =     0.00000000    0.00000000    0.00000000
     atom    3 type  1   force =     0.00000000    0.00000000    0.00000000
     atom    4 type  1   force =     0.00000000    0.00000000    0.00000000
     atom    5 type  2   force =     0.00000000    0.00000000    0.00000000
     atom    6 type  2   force =     0.00000000    0.00000000    0.00000000
     atom    7 type  2   force =     0.00000000    0.00000000    0.00000000
     atom    8 type  2   force =     0.00000000    0.00000000    0.00000000
     The SCF correction term to forces
     atom    1 type  1   force =     0.00000000   -0.00000007    0.00000035
     atom    2 type  1   force =    -0.00000000   -0.00000007   -0.00000035
     atom    3 type  1   force =     0.00000000    0.00000007    0.00000035
     atom    4 type  1   force =     0.00000000    0.00000007   -0.00000035
     atom    5 type  2   force =    -0.00000000    0.00000000   -0.00000157
     atom    6 type  2   force =     0.00000000    0.00000000    0.00000157
     atom    7 type  2   force =    -0.00000000   -0.00000000   -0.00000157
     atom    8 type  2   force =    -0.00000000   -0.00000000    0.00000157

     Total force =     0.000141     Total SCF correction =     0.000003


     Computing stress (Cartesian axis) and pressure


     negative rho (up, down):  5.203E-06 0.000E+00
          total   stress  (Ry/bohr**3)                   (kbar)     P=       -0.03
  -0.00000027   0.00000000   0.00000000           -0.04        0.00        0.00
   0.00000000  -0.00000000   0.00000000            0.00       -0.00        0.00
   0.00000000   0.00000000  -0.00000041            0.00        0.00       -0.06

     kinetic stress (kbar)   9185.07      0.00      0.00
                                0.00   8993.40      0.00
                                0.00      0.00   8358.94

     local   stress (kbar)-162650.73     -0.00      0.00
                               -0.00-164135.37      0.00
                                0.00      0.00 157325.34

     nonloc. stress (kbar)   1186.66      0.00      0.00
                                0.00   1140.17      0.00
                                0.00      0.00    972.39

     hartree stress (kbar)  81599.79      0.00     -0.00
                                0.00  82032.70      0.00
                               -0.00      0.00 -75744.31

     exc-cor stress (kbar)  -2153.31      0.00     -0.00
                                0.00  -2149.01     -0.00
                               -0.00     -0.00  -2142.84

     corecor stress (kbar)    -74.03     -0.00      0.00
                               -0.00    -73.86      0.00
                                0.00      0.00    -72.92

     ewald   stress (kbar)  72906.51      0.00     -0.00
                                0.00  74191.98      0.00
                               -0.00      0.00 -88696.66

     hubbard stress (kbar)      0.00      0.00      0.00
                                0.00      0.00      0.00
                                0.00      0.00      0.00

     DFT-D   stress (kbar)      0.00      0.00      0.00
                                0.00      0.00      0.00
                                0.00      0.00      0.00

     XDM     stress (kbar)      0.00      0.00      0.00
                                0.00      0.00      0.00
                                0.00      0.00      0.00

     dft-nl  stress (kbar)      0.00      0.00      0.00
                                0.00      0.00      0.00
                                0.00      0.00      0.00

     TS-vdW  stress (kbar)      0.00      0.00      0.00
                                0.00      0.00      0.00
                                0.00      0.00      0.00

     MDB     stress (kbar)      0.00      0.00      0.00
                                0.00      0.00      0.00
                                0.00      0.00      0.00

     3D-RISM stress (kbar)      0.00      0.00      0.00
                                0.00      0.00      0.00
                                0.00      0.00      0.00


     BFGS Geometry Optimization
     Energy error            =      0.0E+00 Ry
     Gradient error          =      6.2E-05 Ry/Bohr
     Cell gradient error     =      4.0E-02 kbar

     number of scf cycles    =   1
     number of bfgs steps    =   0

     enthalpy           new  =    -240.2464268172 Ry

     new trust radius        =       0.0000668121 bohr
     new conv_thr            =            1.0E-12 Ry

     new unit-cell volume =   1078.63516 a.u.^3 (   159.83724 Ang^3 )
     density =      1.28861 g/cm^3

CELL_PARAMETERS (angstrom)
   2.628523476   0.000000000   0.000000000
   0.000000000   4.173034829   0.000000000
   0.000000000   0.000000000  14.571830239

ATOMIC_POSITIONS (crystal)
C             0.5000000000        0.1408782627        0.0354712514    0   1   1
C             0.0000000000        0.6408782627       -0.0354712514    0   1   1
C             0.0000000000        0.3591217373        0.0354712514    0   1   1
C             0.5000000000        0.8591217373       -0.0354712514    0   1   1
F             0.5000000000        0.0000000000       -0.1212213916    0   0   1
F             0.0000000000        0.5000000000        0.1212213916    0   0   1
F             0.0000000000        0.5000000000       -0.1212213916    0   0   1
F             0.5000000000        0.0000000000        0.1212213916    0   0   1



     Writing config-only to output data dir ../tmp/fgz.save/
     NEW-OLD atomic charge density approx. for the potential

     negative rho (up, down):  5.464E-06 0.000E+00
     extrapolated charge   43.99970, renormalised to   44.00000

     total cpu time spent up to now is     4315.5 secs

     Self-consistent Calculation

     iteration #  1     ecut=   600.00 Ry     beta= 0.70
     Davidson diagonalization with overlap

---- Real-time Memory Report at c_bands before calling an iterative solver
           186 MiB given to the printing process from OS
             0 MiB allocation reported by mallinfo(arena+hblkhd)
        342343 MiB available memory on the node where the printing process lives
------------------
     ethr =  1.00E-06,  avg # of iterations =  2.0

     Threshold (ethr) on eigenvalues was too large:
     Diagonalizing with lowered threshold

     Davidson diagonalization with overlap

---- Real-time Memory Report at c_bands before calling an iterative solver
           186 MiB given to the printing process from OS
             0 MiB allocation reported by mallinfo(arena+hblkhd)
        342351 MiB available memory on the node where the printing process lives
------------------
     ethr =  5.77E-11,  avg # of iterations =  2.0

     negative rho (up, down):  5.247E-06 0.000E+00

     total cpu time spent up to now is     4831.0 secs

     total energy              =    -240.24642678 Ry
     estimated scf accuracy    <       0.00000003 Ry

     iteration #  2     ecut=   600.00 Ry     beta= 0.70
     Davidson diagonalization with overlap

---- Real-time Memory Report at c_bands before calling an iterative solver
           186 MiB given to the printing process from OS
             0 MiB allocation reported by mallinfo(arena+hblkhd)
        342353 MiB available memory on the node where the printing process lives
------------------
     ethr =  6.33E-11,  avg # of iterations =  3.2

     negative rho (up, down):  5.230E-06 0.000E+00

     total cpu time spent up to now is     5185.1 secs

     total energy              =    -240.24642682 Ry
     estimated scf accuracy    <       0.00000005 Ry

     iteration #  3     ecut=   600.00 Ry     beta= 0.70
     Davidson diagonalization with overlap

---- Real-time Memory Report at c_bands before calling an iterative solver
           186 MiB given to the printing process from OS
             0 MiB allocation reported by mallinfo(arena+hblkhd)
        342363 MiB available memory on the node where the printing process lives
------------------
     ethr =  6.33E-11,  avg # of iterations =  2.0

     negative rho (up, down):  5.222E-06 0.000E+00

     total cpu time spent up to now is     5451.5 secs

     total energy              =    -240.24642682 Ry
     estimated scf accuracy    <          5.3E-09 Ry

     iteration #  4     ecut=   600.00 Ry     beta= 0.70
     Davidson diagonalization with overlap

---- Real-time Memory Report at c_bands before calling an iterative solver
           186 MiB given to the printing process from OS
             0 MiB allocation reported by mallinfo(arena+hblkhd)
        342350 MiB available memory on the node where the printing process lives
------------------
     ethr =  1.21E-11,  avg # of iterations =  1.1

     negative rho (up, down):  5.203E-06 0.000E+00

     total cpu time spent up to now is     5638.1 secs

     total energy              =    -240.24642683 Ry
     estimated scf accuracy    <          2.3E-09 Ry

     iteration #  5     ecut=   600.00 Ry     beta= 0.70
     Davidson diagonalization with overlap

---- Real-time Memory Report at c_bands before calling an iterative solver
           186 MiB given to the printing process from OS
             0 MiB allocation reported by mallinfo(arena+hblkhd)
        342346 MiB available memory on the node where the printing process lives
------------------
     ethr =  5.33E-12,  avg # of iterations =  2.0

     negative rho (up, down):  5.203E-06 0.000E+00

     total cpu time spent up to now is     5911.5 secs

     total energy              =    -240.24642683 Ry
     estimated scf accuracy    <          8.1E-11 Ry

     iteration #  6     ecut=   600.00 Ry     beta= 0.70
     Davidson diagonalization with overlap

---- Real-time Memory Report at c_bands before calling an iterative solver
           186 MiB given to the printing process from OS
             0 MiB allocation reported by mallinfo(arena+hblkhd)
        342350 MiB available memory on the node where the printing process lives
------------------
     ethr =  1.85E-13,  avg # of iterations =  3.1

     negative rho (up, down):  5.203E-06 0.000E+00

     total cpu time spent up to now is     6233.3 secs

     total energy              =    -240.24642683 Ry
     estimated scf accuracy    <          2.6E-11 Ry

     iteration #  7     ecut=   600.00 Ry     beta= 0.70
     Davidson diagonalization with overlap

---- Real-time Memory Report at c_bands before calling an iterative solver
           186 MiB given to the printing process from OS
             0 MiB allocation reported by mallinfo(arena+hblkhd)
        342348 MiB available memory on the node where the printing process lives
------------------
     ethr =  1.00E-13,  avg # of iterations =  2.0

     negative rho (up, down):  5.203E-06 0.000E+00

     total cpu time spent up to now is     6487.7 secs

     End of self-consistent calculation

          k = 0.0000 0.0000 0.0000 (267837 PWs)   bands (ev):

   -28.1359 -27.8519 -26.6166 -26.4987 -18.7989 -15.5273 -13.5197 -11.1276
   -10.3289  -9.9349  -8.6447  -8.2511  -7.5925  -7.5387  -7.2641  -5.4085
    -5.2653  -5.1945  -4.5652  -4.2618  -4.0173  -2.7003   0.8360   3.3031
     3.4366   4.4755

     occupation numbers 
     1.0000   1.0000   1.0000   1.0000   1.0000   1.0000   1.0000   1.0000
     1.0000   1.0000   1.0000   1.0000   1.0000   1.0000   1.0000   1.0000
     1.0000   1.0000   1.0000   1.0000   1.0000   1.0000   0.0000   0.0000
     0.0000   0.0000

          k = 0.0000 0.0700 0.0000 (267841 PWs)   bands (ev):

   -28.1037 -27.8271 -26.6564 -26.5354 -18.7368 -15.7396 -13.3504 -11.0809
   -10.2074  -9.9808  -8.5941  -8.2608  -7.6895  -7.4480  -7.2746  -5.4638
    -5.3374  -5.3057  -4.6231  -4.2132  -3.9735  -2.7474   0.9840   3.3302
     3.4321   4.6567

     occupation numbers 
     1.0000   1.0000   1.0000   1.0000   1.0000   1.0000   1.0000   1.0000
     1.0000   1.0000   1.0000   1.0000   1.0000   1.0000   1.0000   1.0000
     1.0000   1.0000   1.0000   1.0000   1.0000   1.0000   0.0000   0.0000
     0.0000   0.0000

          k = 0.0000 0.1400 0.0000 (267791 PWs)   bands (ev):

   -28.0120 -27.7597 -26.7630 -26.6371 -18.5526 -16.2255 -12.9649 -11.0201
   -10.0361  -9.8920  -8.4471  -8.3035  -7.9601  -7.3220  -7.2020  -5.6431
    -5.5932  -5.4108  -4.7448  -4.1841  -3.8542  -2.8757   1.3840   3.4036
     3.4098   5.1653

     occupation numbers 
     1.0000   1.0000   1.0000   1.0000   1.0000   1.0000   1.0000   1.0000
     1.0000   1.0000   1.0000   1.0000   1.0000   1.0000   1.0000   1.0000
     1.0000   1.0000   1.0000   1.0000   1.0000   1.0000   0.0000   0.0000
     0.0000   0.0000

          k = 0.0000 0.2100 0.0000 (267682 PWs)   bands (ev):

   -27.8761 -27.6776 -26.8949 -26.7784 -18.2523 -16.7949 -12.4964 -11.1612
    -9.8811  -9.4971  -8.4134  -8.3607  -8.2196  -7.4448  -6.8620  -5.9648
    -5.7084  -5.5450  -4.8157  -4.2897  -3.6832  -3.0577   1.9375   3.2984
     3.5401   4.4206

     occupation numbers 
     1.0000   1.0000   1.0000   1.0000   1.0000   1.0000   1.0000   1.0000
     1.0000   1.0000   1.0000   1.0000   1.0000   1.0000   1.0000   1.0000
     1.0000   1.0000   1.0000   1.0000   1.0000   1.0000   0.0000   0.0000
     0.0000   0.0000

          k = 0.0000 0.2799 0.0000 (267762 PWs)   bands (ev):

   -27.7311 -27.6477 -26.9695 -26.9144 -17.8462 -17.3513 -12.0025 -11.5314
    -9.5045  -9.2222  -8.7276  -8.6123  -7.9418  -7.6631  -6.5283  -6.2476
    -5.7353  -5.6679  -4.7362  -4.5153  -3.4814  -3.2668   2.5295   3.0212
     3.7285   4.0144

     occupation numbers 
     1.0000   1.0000   1.0000   1.0000   1.0000   1.0000   1.0000   1.0000
     1.0000   1.0000   1.0000   1.0000   1.0000   1.0000   1.0000   1.0000
     1.0000   1.0000   1.0000   1.0000   1.0000   1.0000   0.0000   0.0000
     0.0000   0.0000

          k = 0.1111 0.0000 0.0000 (267841 PWs)   bands (ev):

   -28.0520 -27.7782 -26.6141 -26.4983 -18.6444 -15.3758 -13.4590 -11.0005
   -10.2539  -9.9546  -9.3335  -8.3531  -7.7208  -7.5575  -7.4462  -5.7512
    -5.5516  -5.2918  -4.6870  -4.3341  -4.1584  -3.2386   1.0795   4.0919
     4.2345   4.4314

     occupation numbers 
     1.0000   1.0000   1.0000   1.0000   1.0000   1.0000   1.0000   1.0000
     1.0000   1.0000   1.0000   1.0000   1.0000   1.0000   1.0000   1.0000
     1.0000   1.0000   1.0000   1.0000   1.0000   1.0000   0.0000   0.0000
     0.0000   0.0000

          k = 0.1111 0.0700 0.0000 (267768 PWs)   bands (ev):

   -28.0212 -27.7545 -26.6512 -26.5326 -18.5830 -15.5936 -13.2864 -10.9660
   -10.1535 -10.0022  -9.2727  -8.3772  -7.7342  -7.6570  -7.3588  -5.8339
    -5.5851  -5.2877  -4.6941  -4.3120  -4.1706  -3.2996   1.2083   4.2287
     4.2578   4.4492

     occupation numbers 
     1.0000   1.0000   1.0000   1.0000   1.0000   1.0000   1.0000   1.0000
     1.0000   1.0000   1.0000   1.0000   1.0000   1.0000   1.0000   1.0000
     1.0000   1.0000   1.0000   1.0000   1.0000   1.0000   0.0000   0.0000
     0.0000   0.0000

          k = 0.1111 0.1400 0.0000 (267734 PWs)   bands (ev):

   -27.9332 -27.6902 -26.7506 -26.6279 -18.4007 -16.0851 -12.9033 -10.9409
   -10.0622  -9.9097  -9.0909  -8.4603  -7.9155  -7.7775  -7.1256  -5.9520
    -5.6569  -5.3945  -4.7441  -4.2221  -4.2181  -3.4373   1.5672   4.1756
     4.4981   4.6444

     occupation numbers 
     1.0000   1.0000   1.0000   1.0000   1.0000   1.0000   1.0000   1.0000
     1.0000   1.0000   1.0000   1.0000   1.0000   1.0000   1.0000   1.0000
     1.0000   1.0000   1.0000   1.0000   1.0000   1.0000   0.0000   0.0000
     0.0000   0.0000

          k = 0.1111 0.2100 0.0000 (267747 PWs)   bands (ev):

   -27.8032 -27.6120 -26.8738 -26.7609 -18.1031 -16.6551 -12.4470 -11.1203
    -9.9341  -9.6426  -8.8490  -8.6125  -8.2196  -7.8611  -6.7991  -6.0054
    -5.7247  -5.6447  -4.8050  -4.3679  -4.0590  -3.5763   2.0930   3.9161
     4.5639   4.7434

     occupation numbers 
     1.0000   1.0000   1.0000   1.0000   1.0000   1.0000   1.0000   1.0000
     1.0000   1.0000   1.0000   1.0000   1.0000   1.0000   1.0000   1.0000
     1.0000   1.0000   1.0000   1.0000   1.0000   1.0000   0.0000   0.0000
     0.0000   0.0000

          k = 0.1111 0.2799 0.0000 (267740 PWs)   bands (ev):

   -27.6645 -27.5842 -26.9428 -26.8895 -17.7006 -17.2091 -11.9673 -11.5025
    -9.6449  -9.4851  -8.8310  -8.7913  -8.2236  -8.0116  -6.4491  -6.1317
    -5.8177  -5.7824  -4.7700  -4.5921  -3.8789  -3.7141   2.7163   3.3657
     4.6261   4.6752

     occupation numbers 
     1.0000   1.0000   1.0000   1.0000   1.0000   1.0000   1.0000   1.0000
     1.0000   1.0000   1.0000   1.0000   1.0000   1.0000   1.0000   1.0000
     1.0000   1.0000   1.0000   1.0000   1.0000   1.0000   0.0000   0.0000
     0.0000   0.0000

          k = 0.2222 0.0000 0.0000 (267717 PWs)   bands (ev):

   -27.8187 -27.5737 -26.6245 -26.5123 -18.1845 -14.9283 -13.3955 -10.6695
   -10.6447 -10.1259 -10.0556  -8.7509  -8.7051  -7.6876  -7.2054  -6.2208
    -6.1594  -5.6745  -5.2670  -4.6020  -4.2038  -4.1716   1.6711   3.8111
     5.6013   6.0363

     occupation numbers 
     1.0000   1.0000   1.0000   1.0000   1.0000   1.0000   1.0000   1.0000
     1.0000   1.0000   1.0000   1.0000   1.0000   1.0000   1.0000   1.0000
     1.0000   1.0000   1.0000   1.0000   1.0000   1.0000   0.0000   0.0000
     0.0000   0.0000

          k = 0.2222 0.0700 0.0000 (267716 PWs)   bands (ev):

   -27.7920 -27.5534 -26.6537 -26.5399 -18.1251 -15.1647 -13.2208 -10.6579
   -10.6557 -10.1981  -9.9111  -8.9080  -8.5571  -7.8028  -7.1507  -6.2484
    -6.1522  -5.5659  -5.2013  -4.5973  -4.3253  -4.1935   1.7633   3.9735
     5.5781   6.0749

     occupation numbers 
     1.0000   1.0000   1.0000   1.0000   1.0000   1.0000   1.0000   1.0000
     1.0000   1.0000   1.0000   1.0000   1.0000   1.0000   1.0000   1.0000
     1.0000   1.0000   1.0000   1.0000   1.0000   1.0000   0.0000   0.0000
     0.0000   0.0000

          k = 0.2222 0.1400 0.0000 (267724 PWs)   bands (ev):

   -27.7160 -27.4987 -26.7324 -26.6167 -17.9485 -15.6720 -12.8664 -10.7910
   -10.5905 -10.3004  -9.5680  -9.0684  -8.4174  -8.0734  -6.9922  -6.2458
    -6.1333  -5.4269  -5.0646  -4.5751  -4.5743  -4.2775   2.0372   4.3773
     5.4241   5.9730

     occupation numbers 
     1.0000   1.0000   1.0000   1.0000   1.0000   1.0000   1.0000   1.0000
     1.0000   1.0000   1.0000   1.0000   1.0000   1.0000   1.0000   1.0000
     1.0000   1.0000   1.0000   1.0000   1.0000   1.0000   0.0000   0.0000
     0.0000   0.0000

          k = 0.2222 0.2100 0.0000 (267819 PWs)   bands (ev):

   -27.6039 -27.4332 -26.8296 -26.7253 -17.6598 -16.2419 -12.4677 -11.1434
   -10.4732 -10.2891  -9.2251  -9.1831  -8.3350  -8.3262  -6.7393  -6.1825
    -6.0958  -5.5449  -4.9831  -4.7939  -4.4999  -4.3302   2.4822   4.4379
     5.3691   5.9543

     occupation numbers 
     1.0000   1.0000   1.0000   1.0000   1.0000   1.0000   1.0000   1.0000
     1.0000   1.0000   1.0000   1.0000   1.0000   1.0000   1.0000   1.0000
     1.0000   1.0000   1.0000   1.0000   1.0000   1.0000   0.0000   0.0000
     0.0000   0.0000

          k = 0.2222 0.2799 0.0000 (267696 PWs)   bands (ev):

   -27.4842 -27.4126 -26.8810 -26.8325 -17.2681 -16.7877 -12.0408 -11.5892
   -10.3468 -10.2759  -9.2026  -9.1349  -8.3839  -8.3161  -6.4086  -6.1553
    -6.0359  -5.8776  -4.9769  -4.9303  -4.3922  -4.3367   3.0769   3.7784
     5.7936   6.0468

     occupation numbers 
     1.0000   1.0000   1.0000   1.0000   1.0000   1.0000   1.0000   1.0000
     1.0000   1.0000   1.0000   1.0000   1.0000   1.0000   1.0000   1.0000
     1.0000   1.0000   1.0000   1.0000   1.0000   1.0000   0.0000   0.0000
     0.0000   0.0000

          k = 0.3333 0.0000 0.0000 (267635 PWs)   bands (ev):

   -27.4896 -27.2855 -26.6926 -26.5786 -17.4290 -14.2065 -13.9029 -11.4324
   -10.9007 -10.2118  -9.8117  -9.3694  -9.3231  -8.0439  -7.0960  -6.4342
    -6.3999  -6.3418  -5.8816  -4.8985  -4.7596  -4.4930   2.4294   4.0011
     5.6279   6.9656

     occupation numbers 
     1.0000   1.0000   1.0000   1.0000   1.0000   1.0000   1.0000   1.0000
     1.0000   1.0000   1.0000   1.0000   1.0000   1.0000   1.0000   1.0000
     1.0000   1.0000   1.0000   1.0000   1.0000   1.0000   0.0000   0.0000
     0.0000   0.0000

          k = 0.3333 0.0700 0.0000 (267609 PWs)   bands (ev):

   -27.4702 -27.2714 -26.7100 -26.5960 -17.3732 -14.5138 -13.7212 -11.3307
   -11.0907 -10.2537  -9.7393  -9.5099  -9.0541  -8.1617  -7.0055  -6.5053
    -6.4270  -6.1784  -5.7384  -5.0470  -4.7290  -4.4595   2.4922   4.1060
     5.5862   6.9500

     occupation numbers 
     1.0000   1.0000   1.0000   1.0000   1.0000   1.0000   1.0000   1.0000
     1.0000   1.0000   1.0000   1.0000   1.0000   1.0000   1.0000   1.0000
     1.0000   1.0000   1.0000   1.0000   1.0000   1.0000   0.0000   0.0000
     0.0000   0.0000

          k = 0.3333 0.1400 0.0000 (267630 PWs)   bands (ev):

   -27.4151 -27.2340 -26.7566 -26.6448 -17.2070 -15.0294 -13.4898 -11.5207
   -11.1120 -10.3635  -9.5847  -9.5685  -8.7353  -8.3501  -6.8477  -6.5526
    -6.4000  -5.8800  -5.4914  -5.3234  -4.6540  -4.4785   2.6906   4.3727
     5.4392   6.2750

     occupation numbers 
     1.0000   1.0000   1.0000   1.0000   1.0000   1.0000   1.0000   1.0000
     1.0000   1.0000   1.0000   1.0000   1.0000   1.0000   1.0000   1.0000
     1.0000   1.0000   1.0000   1.0000   1.0000   1.0000   0.0000   0.0000
     0.0000   0.0000

          k = 0.3333 0.2100 0.0000 (267635 PWs)   bands (ev):

   -27.3340 -27.1922 -26.8121 -26.7156 -16.9344 -15.5819 -13.2259 -12.0161
   -10.8934 -10.4804  -9.6022  -9.5163  -8.4802  -8.3953  -6.7437  -6.4128
    -6.4032  -5.5886  -5.5662  -5.3205  -4.5790  -4.5597   3.0444   4.5397
     5.2567   5.8734

     occupation numbers 
     1.0000   1.0000   1.0000   1.0000   1.0000   1.0000   1.0000   1.0000
     1.0000   1.0000   1.0000   1.0000   1.0000   1.0000   1.0000   1.0000
     1.0000   1.0000   1.0000   1.0000   1.0000   1.0000   0.0000   0.0000
     0.0000   0.0000

          k = 0.3333 0.2799 0.0000 (267709 PWs)   bands (ev):

   -27.2463 -27.1876 -26.8326 -26.7897 -16.5631 -16.1054 -12.8952 -12.4878
   -10.7184 -10.5890  -9.6105  -9.5673  -8.3405  -8.3327  -6.6427  -6.5068
    -6.1236  -5.8145  -5.3833  -5.2907  -4.5822  -4.5552   3.5538   4.1466
     5.3720   5.5862

     occupation numbers 
     1.0000   1.0000   1.0000   1.0000   1.0000   1.0000   1.0000   1.0000
     1.0000   1.0000   1.0000   1.0000   1.0000   1.0000   1.0000   1.0000
     1.0000   1.0000   1.0000   1.0000   1.0000   1.0000   0.0000   0.0000
     0.0000   0.0000

          k = 0.4444 0.0000 0.0000 (267618 PWs)   bands (ev):

   -27.1442 -26.9825 -26.8632 -26.7337 -16.3963 -15.1394 -13.2461 -12.1008
   -11.1723 -10.5368  -9.6194  -9.4964  -9.2031  -8.5853  -7.2038  -6.9473
    -6.3890  -6.2508  -6.0323  -5.4848  -4.8510  -4.7743   3.3260   4.4170
     4.6994   5.8252

     occupation numbers 
     1.0000   1.0000   1.0000   1.0000   1.0000   1.0000   1.0000   1.0000
     1.0000   1.0000   1.0000   1.0000   1.0000   1.0000   1.0000   1.0000
     1.0000   1.0000   1.0000   1.0000   1.0000   1.0000   0.0000   0.0000
     0.0000   0.0000

          k = 0.4444 0.0700 0.0000 (267648 PWs)   bands (ev):

   -27.1355 -26.9783 -26.8659 -26.7390 -16.3463 -15.1064 -13.4458 -12.3179
   -11.0415 -10.4551  -9.6623  -9.6379  -9.0040  -8.6030  -7.0666  -6.8181
    -6.4483  -6.4255  -5.8533  -5.5460  -4.7949  -4.7049   3.3709   4.4417
     4.7036   5.6843

     occupation numbers 
     1.0000   1.0000   1.0000   1.0000   1.0000   1.0000   1.0000   1.0000
     1.0000   1.0000   1.0000   1.0000   1.0000   1.0000   1.0000   1.0000
     1.0000   1.0000   1.0000   1.0000   1.0000   1.0000   0.0000   0.0000
     0.0000   0.0000

          k = 0.4444 0.1400 0.0000 (267647 PWs)   bands (ev):

   -27.1108 -26.9702 -26.8705 -26.7547 -16.1979 -15.0261 -13.8636 -12.7886
   -10.8104 -10.3779  -9.8459  -9.7234  -8.6995  -8.5459  -6.7565  -6.6821
    -6.5522  -6.4854  -5.6438  -5.5968  -4.6812  -4.6210   3.5147   4.4855
     4.7638   5.4232

     occupation numbers 
     1.0000   1.0000   1.0000   1.0000   1.0000   1.0000   1.0000   1.0000
     1.0000   1.0000   1.0000   1.0000   1.0000   1.0000   1.0000   1.0000
     1.0000   1.0000   1.0000   1.0000   1.0000   1.0000   0.0000   0.0000
     0.0000   0.0000

          k = 0.4444 0.2100 0.0000 (267683 PWs)   bands (ev):

   -27.0748 -26.9730 -26.8649 -26.7794 -15.9557 -15.0127 -14.1831 -13.3047
   -10.6449 -10.4211  -9.9263  -9.8496  -8.4351  -8.3904  -6.8630  -6.7305
    -6.3530  -6.0748  -5.5883  -5.5062  -4.6216  -4.6107   3.7617   4.4318
     4.9908   5.2384

     occupation numbers 
     1.0000   1.0000   1.0000   1.0000   1.0000   1.0000   1.0000   1.0000
     1.0000   1.0000   1.0000   1.0000   1.0000   1.0000   1.0000   1.0000
     1.0000   1.0000   1.0000   1.0000   1.0000   1.0000   0.0000   0.0000
     0.0000   0.0000

          k = 0.4444 0.2799 0.0000 (267651 PWs)   bands (ev):

   -27.0341 -26.9968 -26.8418 -26.8102 -15.6324 -15.2678 -14.1099 -13.7678
   -10.5585 -10.4974  -9.9491  -9.9315  -8.2833  -8.2735  -6.9246  -6.8739
    -5.9643  -5.7452  -5.6420  -5.5062  -4.6475  -4.6221   4.0544   4.2869
     5.2063   5.2091

     occupation numbers 
     1.0000   1.0000   1.0000   1.0000   1.0000   1.0000   1.0000   1.0000
     1.0000   1.0000   1.0000   1.0000   1.0000   1.0000   1.0000   1.0000
     1.0000   1.0000   1.0000   1.0000   1.0000   1.0000   0.0000   0.0000
     0.0000   0.0000

     the Fermi energy is    -0.4492 ev

!    total energy              =    -240.24642683 Ry
     estimated scf accuracy    <          1.2E-13 Ry
     smearing contrib. (-TS)   =      -0.00000000 Ry
     internal energy E=F+TS    =    -240.24642683 Ry

     The total energy is F=E-TS. E is the sum of the following terms:
     one-electron contribution =   -1261.23441467 Ry
     hartree contribution      =     644.44445390 Ry
     xc contribution           =     -51.69333463 Ry
     ewald contribution        =     428.23686858 Ry

     convergence has been achieved in   7 iterations

     negative rho (up, down):  5.203E-06 0.000E+00

     Forces acting on atoms (cartesian axes, Ry/au):

     atom    1 type  1   force =     0.00000000    0.00001746   -0.00000401
     atom    2 type  1   force =     0.00000000    0.00001746    0.00000401
     atom    3 type  1   force =    -0.00000000   -0.00001746   -0.00000401
     atom    4 type  1   force =     0.00000000   -0.00001746    0.00000401
     atom    5 type  2   force =     0.00000000   -0.01043773   -0.00000774
     atom    6 type  2   force =    -0.00000000   -0.01043773    0.00000774
     atom    7 type  2   force =    -0.00000000    0.01043773   -0.00000774
     atom    8 type  2   force =     0.00000000    0.01043773    0.00000774
     The non-local contrib.  to forces
     atom    1 type  1   force =     0.00000000   -0.16677684    0.36465379
     atom    2 type  1   force =    -0.00000000   -0.16677684   -0.36465379
     atom    3 type  1   force =     0.00000000    0.16677684    0.36465379
     atom    4 type  1   force =     0.00000000    0.16677684   -0.36465379
     atom    5 type  2   force =     0.00000000   -1.02292111    2.26162829
     atom    6 type  2   force =     0.00000000   -1.02292111   -2.26162829
     atom    7 type  2   force =    -0.00000000    1.02292111    2.26162829
     atom    8 type  2   force =    -0.00000000    1.02292111   -2.26162829
     The ionic contribution  to forces
     atom    1 type  1   force =     0.00000000    1.00136079    2.94505143
     atom    2 type  1   force =    -0.00000000    1.00136079   -2.94505143
     atom    3 type  1   force =     0.00000000   -1.00136079    2.94505143
     atom    4 type  1   force =     0.00000000   -1.00136079   -2.94505143
     atom    5 type  2   force =     0.00000000    3.87402341  -44.60693027
     atom    6 type  2   force =    -0.00000000    3.87402341   44.60693027
     atom    7 type  2   force =     0.00000000   -3.87402341  -44.60693027
     atom    8 type  2   force =     0.00000000   -3.87402341   44.60693027
     The local contribution  to forces
     atom    1 type  1   force =     0.00000000   -0.83557828   -3.30701900
     atom    2 type  1   force =     0.00000000   -0.83557828    3.30701900
     atom    3 type  1   force =    -0.00000000    0.83557828   -3.30701900
     atom    4 type  1   force =    -0.00000000    0.83557828    3.30701900
     atom    5 type  2   force =     0.00000000   -2.86153979   42.34529402
     atom    6 type  2   force =     0.00000000   -2.86153979  -42.34529402
     atom    7 type  2   force =     0.00000000    2.86153979   42.34529402
     atom    8 type  2   force =     0.00000000    2.86153979  -42.34529402
     The core correction contribution to forces
     atom    1 type  1   force =    -0.00000000    0.00101205   -0.00269034
     atom    2 type  1   force =     0.00000000    0.00101205    0.00269034
     atom    3 type  1   force =     0.00000000   -0.00101205   -0.00269034
     atom    4 type  1   force =    -0.00000000   -0.00101205    0.00269034
     atom    5 type  2   force =     0.00000000    0.00000000    0.00000000
     atom    6 type  2   force =     0.00000000    0.00000000    0.00000000
     atom    7 type  2   force =     0.00000000    0.00000000    0.00000000
     atom    8 type  2   force =     0.00000000    0.00000000    0.00000000
     The Hubbard contrib.    to forces
     atom    1 type  1   force =     0.00000000    0.00000000    0.00000000
     atom    2 type  1   force =     0.00000000    0.00000000    0.00000000
     atom    3 type  1   force =     0.00000000    0.00000000    0.00000000
     atom    4 type  1   force =     0.00000000    0.00000000    0.00000000
     atom    5 type  2   force =     0.00000000    0.00000000    0.00000000
     atom    6 type  2   force =     0.00000000    0.00000000    0.00000000
     atom    7 type  2   force =     0.00000000    0.00000000    0.00000000
     atom    8 type  2   force =     0.00000000    0.00000000    0.00000000
     The SCF correction term to forces
     atom    1 type  1   force =    -0.00000000   -0.00000026    0.00000011
     atom    2 type  1   force =    -0.00000000   -0.00000026   -0.00000011
     atom    3 type  1   force =     0.00000000    0.00000026    0.00000011
     atom    4 type  1   force =     0.00000000    0.00000026   -0.00000011
     atom    5 type  2   force =    -0.00000000   -0.00000000    0.00000023
     atom    6 type  2   force =    -0.00000000   -0.00000000   -0.00000023
     atom    7 type  2   force =     0.00000000    0.00000000    0.00000023
     atom    8 type  2   force =    -0.00000000    0.00000000   -0.00000023

     Total force =     0.000039     Total SCF correction =     0.000001


     Computing stress (Cartesian axis) and pressure


     negative rho (up, down):  5.203E-06 0.000E+00
          total   stress  (Ry/bohr**3)                   (kbar)     P=       -0.01
  -0.00000018   0.00000000   0.00000000           -0.03        0.00        0.00
   0.00000000   0.00000004   0.00000000            0.00        0.01        0.00
   0.00000000   0.00000000  -0.00000012            0.00        0.00       -0.02

     kinetic stress (kbar)   9185.20      0.00      0.00
                                0.00   8993.49      0.00
                                0.00      0.00   8358.99

     local   stress (kbar)-162653.60      0.00     -0.00
                                0.00-164138.48      0.00
                               -0.00      0.00 157328.08

     nonloc. stress (kbar)   1186.66      0.00      0.00
                                0.00   1140.18      0.00
                                0.00      0.00    972.38

     hartree stress (kbar)  81601.33      0.00     -0.00
                                0.00  82034.27     -0.00
                               -0.00     -0.00 -75745.78

     exc-cor stress (kbar)  -2153.33     -0.00     -0.00
                               -0.00  -2149.03     -0.00
                               -0.00     -0.00  -2142.86

     corecor stress (kbar)    -74.03      0.00     -0.00
                                0.00    -73.86      0.00
                               -0.00      0.00    -72.92

     ewald   stress (kbar)  72907.74      0.00      0.00
                                0.00  74193.44     -0.00
                                0.00     -0.00 -88697.91

     hubbard stress (kbar)      0.00      0.00      0.00
                                0.00      0.00      0.00
                                0.00      0.00      0.00

     DFT-D   stress (kbar)      0.00      0.00      0.00
                                0.00      0.00      0.00
                                0.00      0.00      0.00

     XDM     stress (kbar)      0.00      0.00      0.00
                                0.00      0.00      0.00
                                0.00      0.00      0.00

     dft-nl  stress (kbar)      0.00      0.00      0.00
                                0.00      0.00      0.00
                                0.00      0.00      0.00

     TS-vdW  stress (kbar)      0.00      0.00      0.00
                                0.00      0.00      0.00
                                0.00      0.00      0.00

     MDB     stress (kbar)      0.00      0.00      0.00
                                0.00      0.00      0.00
                                0.00      0.00      0.00

     3D-RISM stress (kbar)      0.00      0.00      0.00
                                0.00      0.00      0.00
                                0.00      0.00      0.00


     BFGS Geometry Optimization
     Energy error            =      0.0E+00 Ry
     Gradient error          =      1.7E-05 Ry/Bohr
     Cell gradient error     =      2.7E-02 kbar

     number of scf cycles    =   1
     number of bfgs steps    =   0

     enthalpy           new  =    -240.2464268259 Ry

     new trust radius        =       0.0000296885 bohr
     new conv_thr            =            1.0E-12 Ry

     new unit-cell volume =   1078.63149 a.u.^3 (   159.83670 Ang^3 )
     density =      1.28861 g/cm^3

CELL_PARAMETERS (angstrom)
   2.628511595   0.000000000   0.000000000
   0.000000000   4.173039488   0.000000000
   0.000000000   0.000000000  14.571830239

ATOMIC_POSITIONS (crystal)
C             0.5000000000        0.1408804766        0.0354711058    0   1   1
C             0.0000000000        0.6408804766       -0.0354711058    0   1   1
C             0.0000000000        0.3591195234        0.0354711058    0   1   1
C             0.5000000000        0.8591195234       -0.0354711058    0   1   1
F             0.5000000000        0.0000000000       -0.1212216726    0   0   1
F             0.0000000000        0.5000000000        0.1212216726    0   0   1
F             0.0000000000        0.5000000000       -0.1212216726    0   0   1
F             0.5000000000        0.0000000000        0.1212216726    0   0   1



     Writing config-only to output data dir ../tmp/fgz.save/
     NEW-OLD atomic charge density approx. for the potential

     negative rho (up, down):  5.212E-06 0.000E+00
     extrapolated charge   43.99985, renormalised to   44.00000

     total cpu time spent up to now is     6616.4 secs

     Self-consistent Calculation

     iteration #  1     ecut=   600.00 Ry     beta= 0.70
     Davidson diagonalization with overlap

---- Real-time Memory Report at c_bands before calling an iterative solver
           196 MiB given to the printing process from OS
             0 MiB allocation reported by mallinfo(arena+hblkhd)
        342339 MiB available memory on the node where the printing process lives
------------------
     ethr =  1.00E-06,  avg # of iterations =  2.0

     Threshold (ethr) on eigenvalues was too large:
     Diagonalizing with lowered threshold

     Davidson diagonalization with overlap

---- Real-time Memory Report at c_bands before calling an iterative solver
           196 MiB given to the printing process from OS
             0 MiB allocation reported by mallinfo(arena+hblkhd)
        342361 MiB available memory on the node where the printing process lives
------------------
     ethr =  6.79E-12,  avg # of iterations =  2.0

     negative rho (up, down):  5.198E-06 0.000E+00

     total cpu time spent up to now is     7142.4 secs

     total energy              =    -240.24642682 Ry
     estimated scf accuracy    <          2.6E-09 Ry

     iteration #  2     ecut=   600.00 Ry     beta= 0.70
     Davidson diagonalization with overlap

---- Real-time Memory Report at c_bands before calling an iterative solver
           196 MiB given to the printing process from OS
             0 MiB allocation reported by mallinfo(arena+hblkhd)
        342360 MiB available memory on the node where the printing process lives
------------------
     ethr =  5.97E-12,  avg # of iterations =  3.7

     negative rho (up, down):  5.198E-06 0.000E+00

     total cpu time spent up to now is     7538.4 secs

     total energy              =    -240.24642683 Ry
     estimated scf accuracy    <          7.4E-09 Ry

     iteration #  3     ecut=   600.00 Ry     beta= 0.70
     Davidson diagonalization with overlap

---- Real-time Memory Report at c_bands before calling an iterative solver
           196 MiB given to the printing process from OS
             0 MiB allocation reported by mallinfo(arena+hblkhd)
        342364 MiB available memory on the node where the printing process lives
------------------
     ethr =  5.97E-12,  avg # of iterations =  2.0

     negative rho (up, down):  5.199E-06 0.000E+00

     total cpu time spent up to now is     7797.6 secs

     total energy              =    -240.24642683 Ry
     estimated scf accuracy    <          1.5E-09 Ry

     iteration #  4     ecut=   600.00 Ry     beta= 0.70
     Davidson diagonalization with overlap

[...]
     1.0000   1.0000   1.0000   1.0000   1.0000   1.0000   0.0000   0.0000
     0.0000   0.0000

          k = 0.2222 0.0700 0.0000 (267716 PWs)   bands (ev):

   -27.7920 -27.5533 -26.6536 -26.5398 -18.1252 -15.1648 -13.2207 -10.6579
   -10.6558 -10.1980  -9.9111  -8.9080  -8.5571  -7.8027  -7.1507  -6.2483
    -6.1522  -5.5658  -5.2013  -4.5973  -4.3254  -4.1935   1.7631   3.9735
     5.5781   6.0750

     occupation numbers 
     1.0000   1.0000   1.0000   1.0000   1.0000   1.0000   1.0000   1.0000
     1.0000   1.0000   1.0000   1.0000   1.0000   1.0000   1.0000   1.0000
     1.0000   1.0000   1.0000   1.0000   1.0000   1.0000   0.0000   0.0000
     0.0000   0.0000

          k = 0.2222 0.1400 0.0000 (267724 PWs)   bands (ev):

   -27.7159 -27.4986 -26.7323 -26.6166 -17.9486 -15.6721 -12.8664 -10.7910
   -10.5906 -10.3004  -9.5680  -9.0683  -8.4174  -8.0733  -6.9922  -6.2457
    -6.1332  -5.4269  -5.0646  -4.5752  -4.5743  -4.2776   2.0370   4.3773
     5.4241   5.9728

     occupation numbers 
     1.0000   1.0000   1.0000   1.0000   1.0000   1.0000   1.0000   1.0000
     1.0000   1.0000   1.0000   1.0000   1.0000   1.0000   1.0000   1.0000
     1.0000   1.0000   1.0000   1.0000   1.0000   1.0000   0.0000   0.0000
     0.0000   0.0000

          k = 0.2222 0.2100 0.0000 (267813 PWs)   bands (ev):

   -27.6038 -27.4331 -26.8295 -26.7251 -17.6600 -16.2421 -12.4677 -11.1434
   -10.4733 -10.2891  -9.2251  -9.1830  -8.3350  -8.3262  -6.7393  -6.1824
    -6.0957  -5.5448  -4.9831  -4.7939  -4.5000  -4.3303   2.4820   4.4377
     5.3693   5.9540

     occupation numbers 
     1.0000   1.0000   1.0000   1.0000   1.0000   1.0000   1.0000   1.0000
     1.0000   1.0000   1.0000   1.0000   1.0000   1.0000   1.0000   1.0000
     1.0000   1.0000   1.0000   1.0000   1.0000   1.0000   0.0000   0.0000
     0.0000   0.0000

          k = 0.2222 0.2799 0.0000 (267688 PWs)   bands (ev):

   -27.4841 -27.4125 -26.8808 -26.8323 -17.2682 -16.7878 -12.0408 -11.5892
   -10.3469 -10.2759  -9.2025  -9.1348  -8.3839  -8.3161  -6.4086  -6.1553
    -6.0358  -5.8776  -4.9769  -4.9302  -4.3923  -4.3368   3.0768   3.7782
     5.7936   6.0467

     occupation numbers 
     1.0000   1.0000   1.0000   1.0000   1.0000   1.0000   1.0000   1.0000
     1.0000   1.0000   1.0000   1.0000   1.0000   1.0000   1.0000   1.0000
     1.0000   1.0000   1.0000   1.0000   1.0000   1.0000   0.0000   0.0000
     0.0000   0.0000

          k = 0.3333 0.0000 0.0000 (267621 PWs)   bands (ev):

   -27.4895 -27.2854 -26.6925 -26.5785 -17.4291 -14.2067 -13.9029 -11.4325
   -10.9008 -10.2117  -9.8117  -9.3693  -9.3231  -8.0438  -7.0960  -6.4342
    -6.3999  -6.3417  -5.8816  -4.8985  -4.7596  -4.4930   2.4292   4.0011
     5.6278   6.9654

     occupation numbers 
     1.0000   1.0000   1.0000   1.0000   1.0000   1.0000   1.0000   1.0000
     1.0000   1.0000   1.0000   1.0000   1.0000   1.0000   1.0000   1.0000
     1.0000   1.0000   1.0000   1.0000   1.0000   1.0000   0.0000   0.0000
     0.0000   0.0000

          k = 0.3333 0.0700 0.0000 (267607 PWs)   bands (ev):

   -27.4701 -27.2713 -26.7099 -26.5958 -17.3733 -14.5139 -13.7213 -11.3308
   -11.0907 -10.2537  -9.7393  -9.5098  -9.0541  -8.1616  -7.0054  -6.5053
    -6.4269  -6.1784  -5.7384  -5.0471  -4.7290  -4.4595   2.4920   4.1060
     5.5862   6.9500

     occupation numbers 
     1.0000   1.0000   1.0000   1.0000   1.0000   1.0000   1.0000   1.0000
     1.0000   1.0000   1.0000   1.0000   1.0000   1.0000   1.0000   1.0000
     1.0000   1.0000   1.0000   1.0000   1.0000   1.0000   0.0000   0.0000
     0.0000   0.0000

          k = 0.3333 0.1400 0.0000 (267628 PWs)   bands (ev):

   -27.4150 -27.2339 -26.7565 -26.6447 -17.2071 -15.0295 -13.4899 -11.5208
   -11.1120 -10.3635  -9.5846  -9.5684  -8.7353  -8.3501  -6.8476  -6.5526
    -6.4000  -5.8800  -5.4914  -5.3234  -4.6540  -4.4786   2.6904   4.3726
     5.4392   6.2750

     occupation numbers 
     1.0000   1.0000   1.0000   1.0000   1.0000   1.0000   1.0000   1.0000
     1.0000   1.0000   1.0000   1.0000   1.0000   1.0000   1.0000   1.0000
     1.0000   1.0000   1.0000   1.0000   1.0000   1.0000   0.0000   0.0000
     0.0000   0.0000

          k = 0.3333 0.2100 0.0000 (267629 PWs)   bands (ev):

   -27.3339 -27.1921 -26.8119 -26.7155 -16.9346 -15.5821 -13.2259 -12.0162
   -10.8935 -10.4804  -9.6022  -9.5162  -8.4802  -8.3953  -6.7437  -6.4127
    -6.4032  -5.5886  -5.5661  -5.3205  -4.5790  -4.5598   3.0442   4.5395
     5.2568   5.8733

     occupation numbers 
     1.0000   1.0000   1.0000   1.0000   1.0000   1.0000   1.0000   1.0000
     1.0000   1.0000   1.0000   1.0000   1.0000   1.0000   1.0000   1.0000
     1.0000   1.0000   1.0000   1.0000   1.0000   1.0000   0.0000   0.0000
     0.0000   0.0000

          k = 0.3333 0.2799 0.0000 (267709 PWs)   bands (ev):

   -27.2462 -27.1875 -26.8325 -26.7895 -16.5632 -16.1055 -12.8952 -12.4878
   -10.7184 -10.5890  -9.6104  -9.5673  -8.3405  -8.3326  -6.6427  -6.5068
    -6.1235  -5.8145  -5.3832  -5.2907  -4.5823  -4.5552   3.5536   4.1464
     5.3721   5.5861

     occupation numbers 
     1.0000   1.0000   1.0000   1.0000   1.0000   1.0000   1.0000   1.0000
     1.0000   1.0000   1.0000   1.0000   1.0000   1.0000   1.0000   1.0000
     1.0000   1.0000   1.0000   1.0000   1.0000   1.0000   0.0000   0.0000
     0.0000   0.0000

          k = 0.4444 0.0000 0.0000 (267618 PWs)   bands (ev):

   -27.1441 -26.9824 -26.8631 -26.7335 -16.3964 -15.1395 -13.2463 -12.1009
   -11.1723 -10.5368  -9.6193  -9.4964  -9.2030  -8.5852  -7.2037  -6.9473
    -6.3890  -6.2508  -6.0323  -5.4848  -4.8510  -4.7743   3.3259   4.4168
     4.6994   5.8251

     occupation numbers 
     1.0000   1.0000   1.0000   1.0000   1.0000   1.0000   1.0000   1.0000
     1.0000   1.0000   1.0000   1.0000   1.0000   1.0000   1.0000   1.0000
     1.0000   1.0000   1.0000   1.0000   1.0000   1.0000   0.0000   0.0000
     0.0000   0.0000

          k = 0.4444 0.0700 0.0000 (267644 PWs)   bands (ev):

   -27.1353 -26.9782 -26.8658 -26.7389 -16.3464 -15.1065 -13.4460 -12.3180
   -11.0415 -10.4551  -9.6623  -9.6379  -9.0039  -8.6029  -7.0666  -6.8181
    -6.4483  -6.4255  -5.8533  -5.5460  -4.7949  -4.7049   3.3707   4.4415
     4.7035   5.6842

     occupation numbers 
     1.0000   1.0000   1.0000   1.0000   1.0000   1.0000   1.0000   1.0000
     1.0000   1.0000   1.0000   1.0000   1.0000   1.0000   1.0000   1.0000
     1.0000   1.0000   1.0000   1.0000   1.0000   1.0000   0.0000   0.0000
     0.0000   0.0000

          k = 0.4444 0.1400 0.0000 (267647 PWs)   bands (ev):

   -27.1107 -26.9701 -26.8704 -26.7546 -16.1980 -15.0261 -13.8637 -12.7887
   -10.8104 -10.3779  -9.8458  -9.7234  -8.6995  -8.5458  -6.7565  -6.6821
    -6.5522  -6.4854  -5.6438  -5.5967  -4.6812  -4.6210   3.5145   4.4853
     4.7638   5.4232

     occupation numbers 
     1.0000   1.0000   1.0000   1.0000   1.0000   1.0000   1.0000   1.0000
     1.0000   1.0000   1.0000   1.0000   1.0000   1.0000   1.0000   1.0000
     1.0000   1.0000   1.0000   1.0000   1.0000   1.0000   0.0000   0.0000
     0.0000   0.0000

          k = 0.4444 0.2100 0.0000 (267683 PWs)   bands (ev):

   -27.0747 -26.9729 -26.8648 -26.7793 -15.9558 -15.0128 -14.1833 -13.3048
   -10.6449 -10.4211  -9.9262  -9.8495  -8.4351  -8.3903  -6.8631  -6.7305
    -6.3530  -6.0748  -5.5882  -5.5062  -4.6217  -4.6108   3.7615   4.4316
     4.9908   5.2384

     occupation numbers 
     1.0000   1.0000   1.0000   1.0000   1.0000   1.0000   1.0000   1.0000
     1.0000   1.0000   1.0000   1.0000   1.0000   1.0000   1.0000   1.0000
     1.0000   1.0000   1.0000   1.0000   1.0000   1.0000   0.0000   0.0000
     0.0000   0.0000

          k = 0.4444 0.2799 0.0000 (267651 PWs)   bands (ev):

   -27.0340 -26.9967 -26.8417 -26.8101 -15.6325 -15.2679 -14.1100 -13.7680
   -10.5584 -10.4974  -9.9491  -9.9315  -8.2833  -8.2734  -6.9246  -6.8739
    -5.9643  -5.7452  -5.6419  -5.5062  -4.6476  -4.6221   4.0542   4.2867
     5.2064   5.2091

     occupation numbers 
     1.0000   1.0000   1.0000   1.0000   1.0000   1.0000   1.0000   1.0000
     1.0000   1.0000   1.0000   1.0000   1.0000   1.0000   1.0000   1.0000
     1.0000   1.0000   1.0000   1.0000   1.0000   1.0000   0.0000   0.0000
     0.0000   0.0000

     the Fermi energy is    -0.4493 ev

!    total energy              =    -240.24642682 Ry
     estimated scf accuracy    <          1.9E-13 Ry
     smearing contrib. (-TS)   =      -0.00000000 Ry
     internal energy E=F+TS    =    -240.24642682 Ry

     The total energy is F=E-TS. E is the sum of the following terms:
     one-electron contribution =   -1261.23528116 Ry
     hartree contribution      =     644.44490002 Ry
     xc contribution           =     -51.69331988 Ry
     ewald contribution        =     428.23727419 Ry

     convergence has been achieved in  11 iterations

     negative rho (up, down):  5.203E-06 0.000E+00

     Forces acting on atoms (cartesian axes, Ry/au):

     atom    1 type  1   force =    -0.00000000   -0.00000503    0.00000197
     atom    2 type  1   force =     0.00000000   -0.00000503   -0.00000197
     atom    3 type  1   force =     0.00000000    0.00000503    0.00000197
     atom    4 type  1   force =    -0.00000000    0.00000503   -0.00000197
     atom    5 type  2   force =     0.00000000   -0.01044240   -0.00000025
     atom    6 type  2   force =    -0.00000000   -0.01044240    0.00000025
     atom    7 type  2   force =    -0.00000000    0.01044240   -0.00000025
     atom    8 type  2   force =     0.00000000    0.01044240    0.00000025
     The non-local contrib.  to forces
     atom    1 type  1   force =     0.00000000   -0.16678421    0.36464643
     atom    2 type  1   force =     0.00000000   -0.16678421   -0.36464643
     atom    3 type  1   force =     0.00000000    0.16678421    0.36464643
     atom    4 type  1   force =    -0.00000000    0.16678421   -0.36464643
     atom    5 type  2   force =     0.00000000   -1.02291809    2.26159312
     atom    6 type  2   force =    -0.00000000   -1.02291809   -2.26159312
     atom    7 type  2   force =     0.00000000    1.02291809    2.26159312
     atom    8 type  2   force =     0.00000000    1.02291809   -2.26159312
     The ionic contribution  to forces
     atom    1 type  1   force =     0.00000000    1.00124256    2.94507196
     atom    2 type  1   force =    -0.00000000    1.00124256   -2.94507196
     atom    3 type  1   force =    -0.00000000   -1.00124256    2.94507196
     atom    4 type  1   force =     0.00000000   -1.00124256   -2.94507196
     atom    5 type  2   force =     0.00000000    3.87401752  -44.60693815
     atom    6 type  2   force =    -0.00000000    3.87401752   44.60693815
     atom    7 type  2   force =    -0.00000000   -3.87401752  -44.60693815
     atom    8 type  2   force =     0.00000000   -3.87401752   44.60693815
     The local contribution  to forces
     atom    1 type  1   force =     0.00000000   -0.83547565   -3.30702623
     atom    2 type  1   force =     0.00000000   -0.83547565    3.30702623
     atom    3 type  1   force =     0.00000000    0.83547565   -3.30702623
     atom    4 type  1   force =     0.00000000    0.83547565    3.30702623
     atom    5 type  2   force =     0.00000000   -2.86154223   42.34534546
     atom    6 type  2   force =     0.00000000   -2.86154223  -42.34534546
     atom    7 type  2   force =     0.00000000    2.86154223   42.34534546
     atom    8 type  2   force =     0.00000000    2.86154223  -42.34534546
     The core correction contribution to forces
     atom    1 type  1   force =    -0.00000000    0.00101231   -0.00269034
     atom    2 type  1   force =    -0.00000000    0.00101231    0.00269034
     atom    3 type  1   force =     0.00000000   -0.00101231   -0.00269034
     atom    4 type  1   force =     0.00000000   -0.00101231    0.00269034
     atom    5 type  2   force =     0.00000000    0.00000000    0.00000000
     atom    6 type  2   force =     0.00000000    0.00000000    0.00000000
     atom    7 type  2   force =     0.00000000    0.00000000    0.00000000
     atom    8 type  2   force =     0.00000000    0.00000000    0.00000000
     The Hubbard contrib.    to forces
     atom    1 type  1   force =     0.00000000    0.00000000    0.00000000
     atom    2 type  1   force =     0.00000000    0.00000000    0.00000000
     atom    3 type  1   force =     0.00000000    0.00000000    0.00000000
     atom    4 type  1   force =     0.00000000    0.00000000    0.00000000
     atom    5 type  2   force =     0.00000000    0.00000000    0.00000000
     atom    6 type  2   force =     0.00000000    0.00000000    0.00000000
     atom    7 type  2   force =     0.00000000    0.00000000    0.00000000
     atom    8 type  2   force =     0.00000000    0.00000000    0.00000000
     The SCF correction term to forces
     atom    1 type  1   force =    -0.00000000   -0.00000004    0.00000014
     atom    2 type  1   force =     0.00000000   -0.00000004   -0.00000014
     atom    3 type  1   force =     0.00000000    0.00000004    0.00000014
     atom    4 type  1   force =    -0.00000000    0.00000004   -0.00000014
     atom    5 type  2   force =     0.00000000    0.00000000   -0.00000068
     atom    6 type  2   force =    -0.00000000    0.00000000    0.00000068
     atom    7 type  2   force =    -0.00000000   -0.00000000   -0.00000068
     atom    8 type  2   force =     0.00000000   -0.00000000    0.00000068

     Total force =     0.000011     Total SCF correction =     0.000001
     SCF correction compared to forces is large: reduce conv_thr to get better values


     Computing stress (Cartesian axis) and pressure


     negative rho (up, down):  5.203E-06 0.000E+00
          total   stress  (Ry/bohr**3)                   (kbar)     P=       -0.02
  -0.00000014   0.00000000   0.00000000           -0.02        0.00        0.00
   0.00000000   0.00000002   0.00000000            0.00        0.00        0.00
   0.00000000   0.00000000  -0.00000020            0.00        0.00       -0.03

     kinetic stress (kbar)   9185.23      0.00      0.00
                                0.00   8993.51      0.00
                                0.00      0.00   8359.03

     local   stress (kbar)-162654.49     -0.00     -0.00
                               -0.00-164139.23     -0.00
                               -0.00     -0.00 157329.03

     nonloc. stress (kbar)   1186.66      0.00      0.00
                                0.00   1140.18      0.00
                                0.00      0.00    972.39

     hartree stress (kbar)  81601.73      0.00      0.00
                                0.00  82034.64     -0.00
                                0.00     -0.00 -75746.19

     exc-cor stress (kbar)  -2153.34     -0.00     -0.00
                               -0.00  -2149.04     -0.00
                               -0.00     -0.00  -2142.87

     corecor stress (kbar)    -74.03      0.00      0.00
                                0.00    -73.86     -0.00
                               -0.00     -0.00    -72.92

     ewald   stress (kbar)  72908.21      0.00      0.00
                                0.00  74193.81     -0.00
                                0.00     -0.00 -88698.50

     hubbard stress (kbar)      0.00      0.00      0.00
                                0.00      0.00      0.00
                                0.00      0.00      0.00

     DFT-D   stress (kbar)      0.00      0.00      0.00
                                0.00      0.00      0.00
                                0.00      0.00      0.00

     XDM     stress (kbar)      0.00      0.00      0.00
                                0.00      0.00      0.00
                                0.00      0.00      0.00

     dft-nl  stress (kbar)      0.00      0.00      0.00
                                0.00      0.00      0.00
                                0.00      0.00      0.00

     TS-vdW  stress (kbar)      0.00      0.00      0.00
                                0.00      0.00      0.00
                                0.00      0.00      0.00

     MDB     stress (kbar)      0.00      0.00      0.00
                                0.00      0.00      0.00
                                0.00      0.00      0.00

     3D-RISM stress (kbar)      0.00      0.00      0.00
                                0.00      0.00      0.00
                                0.00      0.00      0.00


     Writing all to output data dir ../tmp/fgz.save/

     init_run     :     87.04s CPU    157.75s WALL (       2 calls)
     electrons    :   6883.53s CPU  12795.95s WALL (       4 calls)
     update_pot   :      1.52s CPU      1.52s WALL (       2 calls)
     forces       :    196.42s CPU    359.43s WALL (       4 calls)
     stress       :     86.85s CPU    171.76s WALL (       4 calls)

     Called by init_run:
     wfcinit      :     83.48s CPU    153.59s WALL (       2 calls)
     wfcinit:atom :      0.04s CPU      0.03s WALL (      50 calls)
     wfcinit:wfcr :     82.38s CPU    151.68s WALL (      50 calls)
     potinit      :      0.57s CPU      0.58s WALL (       2 calls)
     hinit0       :      1.22s CPU      1.26s WALL (       2 calls)

     Called by electrons:
     c_bands      :   6639.01s CPU  12217.32s WALL (      40 calls)
     sum_band     :    233.88s CPU    557.22s WALL (      40 calls)
     v_of_rho     :      1.25s CPU      1.38s WALL (      41 calls)
     v_h          :      0.09s CPU      0.11s WALL (      41 calls)
     v_xc         :      1.36s CPU      1.51s WALL (      49 calls)
     newd         :      6.83s CPU     16.51s WALL (      41 calls)
     mix_rho      :      1.13s CPU      1.45s WALL (      40 calls)

     Called by c_bands:
     init_us_2    :      1.84s CPU      4.61s WALL (    2250 calls)
     init_us_2:cp :      1.82s CPU      4.61s WALL (    2250 calls)
     cegterg      :   6304.98s CPU  11523.75s WALL (    1000 calls)

     Called by sum_band:
     sum_band:wei :      0.00s CPU      0.00s WALL (      40 calls)
     sum_band:loo :    221.67s CPU    529.56s WALL (      40 calls)
     sum_band:buf :      0.24s CPU      0.50s WALL (    1000 calls)
     sum_band:ini :      0.56s CPU      1.12s WALL (    1000 calls)
     sum_band:cal :    199.20s CPU    499.85s WALL (    1000 calls)
     sum_band:bec :      0.01s CPU      0.02s WALL (    1000 calls)
     addusdens    :      4.98s CPU     19.22s WALL (      40 calls)
     addusd:skk   :      0.05s CPU      0.32s WALL (      80 calls)
     addusd:dgemm :      3.39s CPU     14.16s WALL (      80 calls)
     addusd:qvan2 :      1.43s CPU      4.65s WALL (      80 calls)

     Called by *egterg:
     cdiaghg      :    570.46s CPU    593.00s WALL (    3714 calls)
     cegterg:over :   2128.97s CPU   3447.86s WALL (    2839 calls)
     cegterg:upda :    143.53s CPU    293.43s WALL (    2839 calls)
     cegterg:last :    175.65s CPU    353.04s WALL (    2209 calls)
     h_psi        :   1469.53s CPU   3636.67s WALL (    3889 calls)
     s_psi        :     50.27s CPU    132.11s WALL (    3889 calls)
     g_psi        :      0.78s CPU      0.53s WALL (    2839 calls)

     Called by h_psi:
     h_psi:calbec :    943.27s CPU   2377.00s WALL (    3889 calls)
     vloc_psi     :    277.95s CPU    344.00s WALL (    3889 calls)
     add_vuspsi   :    247.65s CPU    912.26s WALL (    3889 calls)

     General routines
     calbec       :   1392.09s CPU   3320.78s WALL (    5389 calls)
     fft          :      2.34s CPU      2.56s WALL (     556 calls)
     ffts         :      0.32s CPU      0.37s WALL (      40 calls)
     fftw         :    292.35s CPU    351.63s WALL (  169024 calls)

     Parallel routines

     PWSCF        :      2h 0m CPU      3h45m WALL


   This run was terminated on:   5:23: 3  18Jan2024            

=------------------------------------------------------------------------------=
   JOB DONE.
=------------------------------------------------------------------------------=
