
     Program PWSCF v.7.1 starts on 19Jan2024 at  8:57:33 

     This program is part of the open-source Quantum ESPRESSO suite
     for quantum simulation of materials; please cite
         "P. Giannozzi et al., J. Phys.:Condens. Matter 21 395502 (2009);
         "P. Giannozzi et al., J. Phys.:Condens. Matter 29 465901 (2017);
         "P. Giannozzi et al., J. Chem. Phys. 152 154105 (2020);
          URL http://www.quantum-espresso.org", 
     in publications or presentations arising from this work. More details at
     http://www.quantum-espresso.org/quote

     Parallel version (MPI), running on    88 processors

     MPI processes distributed on     1 nodes
     351039 MiB available memory on the printing compute node when the environment starts

     Reading input from vc-relax2.in

     Current dimensions of program PWSCF are:
     Max number of different atomic species (ntypx) = 10
     Max number of k-points (npk) =  40000
     Max angular momentum in pseudopotentials (lmaxx) =  4
     Message from routine setup:
     using ibrav=0 with symmetry is DISCOURAGED, use correct ibrav instead

     R & G space division:  proc/nbgrp/npool/nimage =      88
     Subspace diagonalization in iterative solution of the eigenvalue problem:
     a serial algorithm will be used


     Parallelization info
     --------------------
     sticks:   dense  smooth     PW     G-vecs:    dense   smooth      PW
     Min          77      77     20                21335    21335    2884
     Max          78      78     21                21370    21370    2905
     Sum        6855    6855   1811              1879397  1879397  254745

     Using Slab Decomposition



     bravais-lattice index     =            0
     lattice parameter (alat)  =       4.9671  a.u.
     unit-cell volume          =    1078.6250 (a.u.)^3
     number of atoms/cell      =            8
     number of atomic types    =            2
     number of electrons       =        44.00
     number of Kohn-Sham states=           26
     kinetic-energy cutoff     =     550.0000  Ry
     charge density cutoff     =    2200.0000  Ry
     scf convergence threshold =      1.0E-08
     mixing beta               =       0.7000
     number of iterations used =            8  plain     mixing
     energy convergence thresh.=      1.0E-05
     force convergence thresh. =      1.0E-04
     press convergence thresh. =      5.0E-02
     Exchange-correlation=  SLA  PW   PBX  PBC
                           (   1   4   3   4   0   0   0)
     nstep                     =           50


     celldm(1)=   4.967129  celldm(2)=   0.000000  celldm(3)=   0.000000
     celldm(4)=   0.000000  celldm(5)=   0.000000  celldm(6)=   0.000000

     crystal axes: (cart. coord. in units of alat)
               a(1) = (   1.000000   0.000000   0.000000 )  
               a(2) = (   0.000000   1.587620   0.000000 )  
               a(3) = (   0.000000   0.000000   5.543800 )  

     reciprocal axes: (cart. coord. in units 2 pi/alat)
               b(1) = (  1.000000  0.000000  0.000000 )  
               b(2) = (  0.000000  0.629873  0.000000 )  
               b(3) = (  0.000000  0.000000  0.180382 )  


     PseudoPot. # 1 for C  read from file:
     ../pseudo/c_pbe_v1.2.uspp.F.UPF
     MD5 check sum: d1aef80898a10debaa0f26306b886e00
     Pseudo is Ultrasoft + core correction, Zval =  4.0
     Generated by new atomic code, or converted to UPF format
     Using radial grid of  721 points,  4 beta functions with: 
                l(1) =   0
                l(2) =   0
                l(3) =   1
                l(4) =   1
     Q(r) pseudized with  8 coefficients,  rinner =    1.100   1.100   1.100


     PseudoPot. # 2 for F  read from file:
     ../pseudo/f_pbe_v1.4.uspp.F.UPF
     MD5 check sum: 4c38b6a325caf53ec0e86aed9459de46
     Pseudo is Ultrasoft, Zval =  7.0
     Generated by new atomic code, or converted to UPF format
     Using radial grid of  799 points,  4 beta functions with: 
                l(1) =   0
                l(2) =   0
                l(3) =   1
                l(4) =   1
     Q(r) pseudized with  8 coefficients,  rinner =    0.950   0.950   0.950


     atomic species   valence    mass     pseudopotential
        C              4.00    12.01070     C ( 1.00)
        F              7.00    18.99840     F ( 1.00)

      8 Sym. Ops., with inversion, found ( 4 have fractional translation)


                                    s                        frac. trans.

      isym =  1     identity                                     

 cryst.   s( 1) = (     1          0          0      )
                  (     0          1          0      )
                  (     0          0          1      )

 cart.    s( 1) = (  1.0000000  0.0000000  0.0000000 )
                  (  0.0000000  1.0000000  0.0000000 )
                  (  0.0000000  0.0000000  1.0000000 )


      isym =  2     180 deg rotation - cart. axis [0,0,1]        

 cryst.   s( 2) = (    -1          0          0      )    f =(  0.5000000 )
                  (     0         -1          0      )       (  0.5000000 )
                  (     0          0          1      )       (  0.0000000 )

 cart.    s( 2) = ( -1.0000000  0.0000000  0.0000000 )    f =(  0.5000000 )
                  (  0.0000000 -1.0000000  0.0000000 )       (  0.7938102 )
                  (  0.0000000  0.0000000  1.0000000 )       (  0.0000000 )


      isym =  3     180 deg rotation - cart. axis [0,1,0]        

 cryst.   s( 3) = (    -1          0          0      )    f =(  0.5000000 )
                  (     0          1          0      )       ( -0.5000000 )
                  (     0          0         -1      )       (  0.0000000 )

 cart.    s( 3) = ( -1.0000000  0.0000000  0.0000000 )    f =(  0.5000000 )
                  (  0.0000000  1.0000000  0.0000000 )       ( -0.7938102 )
                  (  0.0000000  0.0000000 -1.0000000 )       (  0.0000000 )


      isym =  4     180 deg rotation - cart. axis [1,0,0]        

 cryst.   s( 4) = (     1          0          0      )
                  (     0         -1          0      )
                  (     0          0         -1      )

 cart.    s( 4) = (  1.0000000  0.0000000  0.0000000 )
                  (  0.0000000 -1.0000000  0.0000000 )
                  (  0.0000000  0.0000000 -1.0000000 )


      isym =  5     inversion                                    

 cryst.   s( 5) = (    -1          0          0      )
                  (     0         -1          0      )
                  (     0          0         -1      )

 cart.    s( 5) = ( -1.0000000  0.0000000  0.0000000 )
                  (  0.0000000 -1.0000000  0.0000000 )
                  (  0.0000000  0.0000000 -1.0000000 )


      isym =  6     inv. 180 deg rotation - cart. axis [0,0,1]   

 cryst.   s( 6) = (     1          0          0      )    f =(  0.5000000 )
                  (     0          1          0      )       ( -0.5000000 )
                  (     0          0         -1      )       (  0.0000000 )

 cart.    s( 6) = (  1.0000000  0.0000000  0.0000000 )    f =(  0.5000000 )
                  (  0.0000000  1.0000000  0.0000000 )       ( -0.7938102 )
                  (  0.0000000  0.0000000 -1.0000000 )       (  0.0000000 )


      isym =  7     inv. 180 deg rotation - cart. axis [0,1,0]   

 cryst.   s( 7) = (     1          0          0      )    f =(  0.5000000 )
                  (     0         -1          0      )       (  0.5000000 )
                  (     0          0          1      )       (  0.0000000 )

 cart.    s( 7) = (  1.0000000  0.0000000  0.0000000 )    f =(  0.5000000 )
                  (  0.0000000 -1.0000000  0.0000000 )       (  0.7938102 )
                  (  0.0000000  0.0000000  1.0000000 )       (  0.0000000 )


      isym =  8     inv. 180 deg rotation - cart. axis [1,0,0]   

 cryst.   s( 8) = (    -1          0          0      )
                  (     0          1          0      )
                  (     0          0          1      )

 cart.    s( 8) = ( -1.0000000  0.0000000  0.0000000 )
                  (  0.0000000  1.0000000  0.0000000 )
                  (  0.0000000  0.0000000  1.0000000 )


   Cartesian axes

     site n.     atom                  positions (alat units)
         1           C   tau(   1) = (   0.5000000   0.2236639   0.1966454  )
         2           C   tau(   2) = (   0.0000000   1.0174741  -0.1966454  )
         3           C   tau(   3) = (   0.0000000   0.5701463   0.1966454  )
         4           C   tau(   4) = (   0.5000000   1.3639566  -0.1966454  )
         5           F   tau(   5) = (   0.5000000   0.0000000  -0.6720291  )
         6           F   tau(   6) = (   0.0000000   0.7938102   0.6720291  )
         7           F   tau(   7) = (   0.0000000   0.7938102  -0.6720291  )
         8           F   tau(   8) = (   0.5000000   0.0000000   0.6720291  )

   Crystallographic axes

     site n.     atom                  positions (cryst. coord.)
         1           C   tau(   1) = (  0.5000000  0.1408799  0.0354712  )
         2           C   tau(   2) = (  0.0000000  0.6408799 -0.0354712  )
         3           C   tau(   3) = (  0.0000000  0.3591201  0.0354712  )
         4           C   tau(   4) = (  0.5000000  0.8591201 -0.0354712  )
         5           F   tau(   5) = (  0.5000000  0.0000000 -0.1212217  )
         6           F   tau(   6) = (  0.0000000  0.5000000  0.1212217  )
         7           F   tau(   7) = (  0.0000000  0.5000000 -0.1212217  )
         8           F   tau(   8) = (  0.5000000  0.0000000  0.1212217  )

     number of k points=    16  Marzari-Vanderbilt smearing, width (Ry)=  0.0200
                       cart. coord. in units 2pi/alat
        k(    1) = (   0.0000000   0.0000000   0.0000000), wk =   0.0408163
        k(    2) = (   0.0000000   0.0899819   0.0000000), wk =   0.0816327
        k(    3) = (   0.0000000   0.1799638   0.0000000), wk =   0.0816327
        k(    4) = (   0.0000000   0.2699458   0.0000000), wk =   0.0816327
        k(    5) = (   0.1428571   0.0000000   0.0000000), wk =   0.0816327
        k(    6) = (   0.1428571   0.0899819   0.0000000), wk =   0.1632653
        k(    7) = (   0.1428571   0.1799638   0.0000000), wk =   0.1632653
        k(    8) = (   0.1428571   0.2699458   0.0000000), wk =   0.1632653
        k(    9) = (   0.2857143   0.0000000   0.0000000), wk =   0.0816327
        k(   10) = (   0.2857143   0.0899819   0.0000000), wk =   0.1632653
        k(   11) = (   0.2857143   0.1799638   0.0000000), wk =   0.1632653
        k(   12) = (   0.2857143   0.2699458   0.0000000), wk =   0.1632653
        k(   13) = (   0.4285714   0.0000000   0.0000000), wk =   0.0816327
        k(   14) = (   0.4285714   0.0899819   0.0000000), wk =   0.1632653
        k(   15) = (   0.4285714   0.1799638   0.0000000), wk =   0.1632653
        k(   16) = (   0.4285714   0.2699458   0.0000000), wk =   0.1632653

                       cryst. coord.
        k(    1) = (   0.0000000   0.0000000   0.0000000), wk =   0.0408163
        k(    2) = (   0.0000000   0.1428571   0.0000000), wk =   0.0816327
        k(    3) = (   0.0000000   0.2857143   0.0000000), wk =   0.0816327
        k(    4) = (   0.0000000   0.4285714   0.0000000), wk =   0.0816327
        k(    5) = (   0.1428571   0.0000000   0.0000000), wk =   0.0816327
        k(    6) = (   0.1428571   0.1428571   0.0000000), wk =   0.1632653
        k(    7) = (   0.1428571   0.2857143   0.0000000), wk =   0.1632653
        k(    8) = (   0.1428571   0.4285714   0.0000000), wk =   0.1632653
        k(    9) = (   0.2857143   0.0000000   0.0000000), wk =   0.0816327
        k(   10) = (   0.2857143   0.1428571   0.0000000), wk =   0.1632653
        k(   11) = (   0.2857143   0.2857143   0.0000000), wk =   0.1632653
        k(   12) = (   0.2857143   0.4285714   0.0000000), wk =   0.1632653
        k(   13) = (   0.4285714   0.0000000   0.0000000), wk =   0.0816327
        k(   14) = (   0.4285714   0.1428571   0.0000000), wk =   0.1632653
        k(   15) = (   0.4285714   0.2857143   0.0000000), wk =   0.1632653
        k(   16) = (   0.4285714   0.4285714   0.0000000), wk =   0.1632653

     Dense  grid:  1879397 G-vectors     FFT dimensions: (  80, 120, 432)

     Dynamical RAM for                 wfc:       1.06 MB

     Dynamical RAM for     wfc (w. buffer):      18.00 MB

     Dynamical RAM for           str. fact:       0.65 MB

     Dynamical RAM for           local pot:       0.00 MB

     Dynamical RAM for          nlocal pot:       2.61 MB

     Dynamical RAM for                qrad:       4.30 MB

     Dynamical RAM for          rho,v,vnew:       2.08 MB

     Dynamical RAM for               rhoin:       0.69 MB

     Dynamical RAM for            rho*nmix:       5.21 MB

     Dynamical RAM for           G-vectors:       1.38 MB

     Dynamical RAM for          h,s,v(r/c):       0.12 MB

     Dynamical RAM for          <psi|beta>:       0.03 MB

     Dynamical RAM for                 psi:       2.12 MB

     Dynamical RAM for                hpsi:       2.12 MB

     Dynamical RAM for                spsi:       2.12 MB

     Dynamical RAM for      wfcinit/wfcrot:       2.63 MB

     Dynamical RAM for           addusdens:      15.32 MB

     Dynamical RAM for          addusforce:      17.44 MB

     Dynamical RAM for         addusstress:      16.29 MB

     Estimated static dynamical RAM per process >      32.52 MB

     Estimated max dynamical RAM per process >      55.17 MB

     Estimated total dynamical RAM >       4.74 GB

     Initial potential from superposition of free atoms

     starting charge      43.9998, renormalised to      44.0000

     negative rho (up, down):  3.271E-03 0.000E+00
     Starting wfcs are   32 randomized atomic wfcs

     total cpu time spent up to now is       52.9 secs

     Self-consistent Calculation

     iteration #  1     ecut=   550.00 Ry     beta= 0.70
     Davidson diagonalization with overlap

---- Real-time Memory Report at c_bands before calling an iterative solver
           111 MiB given to the printing process from OS
             0 MiB allocation reported by mallinfo(arena+hblkhd)
        346947 MiB available memory on the node where the printing process lives
------------------
     ethr =  1.00E-02,  avg # of iterations =  3.1

     Threshold (ethr) on eigenvalues was too large:
     Diagonalizing with lowered threshold

     Davidson diagonalization with overlap

---- Real-time Memory Report at c_bands before calling an iterative solver
           126 MiB given to the printing process from OS
             0 MiB allocation reported by mallinfo(arena+hblkhd)
        345586 MiB available memory on the node where the printing process lives
------------------
     ethr =  9.86E-04,  avg # of iterations =  1.0

     negative rho (up, down):  9.030E-04 0.000E+00

     total cpu time spent up to now is      387.5 secs

     total energy              =    -240.14018917 Ry
     estimated scf accuracy    <       0.42243880 Ry

     iteration #  2     ecut=   550.00 Ry     beta= 0.70
     Davidson diagonalization with overlap

---- Real-time Memory Report at c_bands before calling an iterative solver
           130 MiB given to the printing process from OS
             0 MiB allocation reported by mallinfo(arena+hblkhd)
        345412 MiB available memory on the node where the printing process lives
------------------
     ethr =  9.60E-04,  avg # of iterations =  3.0

     negative rho (up, down):  5.264E-04 0.000E+00

     total cpu time spent up to now is      604.3 secs

     total energy              =    -240.15812642 Ry
     estimated scf accuracy    <       0.31129349 Ry

     iteration #  3     ecut=   550.00 Ry     beta= 0.70
     Davidson diagonalization with overlap

---- Real-time Memory Report at c_bands before calling an iterative solver
           131 MiB given to the printing process from OS
             0 MiB allocation reported by mallinfo(arena+hblkhd)
        345339 MiB available memory on the node where the printing process lives
------------------
     ethr =  7.07E-04,  avg # of iterations =  2.4

     negative rho (up, down):  1.067E-04 0.000E+00

     total cpu time spent up to now is      787.1 secs

     total energy              =    -240.24221937 Ry
     estimated scf accuracy    <       0.02902850 Ry

     iteration #  4     ecut=   550.00 Ry     beta= 0.70
     Davidson diagonalization with overlap

---- Real-time Memory Report at c_bands before calling an iterative solver
           131 MiB given to the printing process from OS
             0 MiB allocation reported by mallinfo(arena+hblkhd)
        345295 MiB available memory on the node where the printing process lives
------------------
     ethr =  6.60E-05,  avg # of iterations =  3.6

     negative rho (up, down):  1.722E-05 0.000E+00

     total cpu time spent up to now is     1010.5 secs

     total energy              =    -240.24605436 Ry
     estimated scf accuracy    <       0.00090164 Ry

     iteration #  5     ecut=   550.00 Ry     beta= 0.70
     Davidson diagonalization with overlap

---- Real-time Memory Report at c_bands before calling an iterative solver
           132 MiB given to the printing process from OS
             0 MiB allocation reported by mallinfo(arena+hblkhd)
        345212 MiB available memory on the node where the printing process lives
------------------
     ethr =  2.05E-06,  avg # of iterations =  6.1

     negative rho (up, down):  2.238E-06 0.000E+00

     total cpu time spent up to now is     1355.4 secs

     total energy              =    -240.24633553 Ry
     estimated scf accuracy    <       0.00002867 Ry

     iteration #  6     ecut=   550.00 Ry     beta= 0.70
     Davidson diagonalization with overlap

---- Real-time Memory Report at c_bands before calling an iterative solver
           133 MiB given to the printing process from OS
             0 MiB allocation reported by mallinfo(arena+hblkhd)
        345145 MiB available memory on the node where the printing process lives
------------------
     ethr =  6.52E-08,  avg # of iterations =  2.6

     negative rho (up, down):  2.197E-06 0.000E+00

     total cpu time spent up to now is     1542.1 secs

     total energy              =    -240.24633821 Ry
     estimated scf accuracy    <       0.00000421 Ry

     iteration #  7     ecut=   550.00 Ry     beta= 0.70
     Davidson diagonalization with overlap

---- Real-time Memory Report at c_bands before calling an iterative solver
           133 MiB given to the printing process from OS
             0 MiB allocation reported by mallinfo(arena+hblkhd)
        345104 MiB available memory on the node where the printing process lives
------------------
     ethr =  9.57E-09,  avg # of iterations =  2.8

     negative rho (up, down):  2.197E-06 0.000E+00

     total cpu time spent up to now is     1749.6 secs

     total energy              =    -240.24633961 Ry
     estimated scf accuracy    <       0.00000056 Ry

     iteration #  8     ecut=   550.00 Ry     beta= 0.70
     Davidson diagonalization with overlap

---- Real-time Memory Report at c_bands before calling an iterative solver
           134 MiB given to the printing process from OS
             0 MiB allocation reported by mallinfo(arena+hblkhd)
        345048 MiB available memory on the node where the printing process lives
------------------
     ethr =  1.27E-09,  avg # of iterations =  2.0

     negative rho (up, down):  2.198E-06 0.000E+00

     total cpu time spent up to now is     1903.8 secs

     End of self-consistent calculation

          k = 0.0000 0.0000 0.0000 (235071 PWs)   bands (ev):

   -28.1358 -27.8518 -26.6165 -26.4986 -18.7989 -15.5274 -13.5194 -11.1275
   -10.3289  -9.9347  -8.6444  -8.2510  -7.5923  -7.5387  -7.2639  -5.4084
    -5.2651  -5.1944  -4.5651  -4.2617  -4.0172  -2.7003   0.8359   3.3035
     3.4368   4.4761

     occupation numbers 
     1.0000   1.0000   1.0000   1.0000   1.0000   1.0000   1.0000   1.0000
     1.0000   1.0000   1.0000   1.0000   1.0000   1.0000   1.0000   1.0000
     1.0000   1.0000   1.0000   1.0000   1.0000   1.0000   0.0000   0.0000
     0.0000   0.0000

          k = 0.0000 0.0900 0.0000 (235005 PWs)   bands (ev):

   -28.0831 -27.8114 -26.6811 -26.5585 -18.6965 -15.8610 -13.2541 -11.0569
   -10.1327 -10.0038  -8.5612  -8.2683  -7.7500  -7.3919  -7.2827  -5.4964
    -5.4163  -5.3304  -4.6558  -4.1954  -3.9460  -2.7768   1.0763   3.3480
     3.4282   4.7723

     occupation numbers 
     1.0000   1.0000   1.0000   1.0000   1.0000   1.0000   1.0000   1.0000
     1.0000   1.0000   1.0000   1.0000   1.0000   1.0000   1.0000   1.0000
     1.0000   1.0000   1.0000   1.0000   1.0000   1.0000   0.0000   0.0000
     0.0000   0.0000

          k = 0.0000 0.1800 0.0000 (235081 PWs)   bands (ev):

   -27.9380 -27.7113 -26.8394 -26.7152 -18.3946 -16.5484 -12.7027 -11.0659
    -9.9830  -9.6674  -8.3556  -8.3251  -8.1781  -7.3803  -7.0131  -5.8305
    -5.6667  -5.4863  -4.7992  -4.2259  -3.7613  -2.9748   1.6885   3.3585
     3.4783   4.5948

     occupation numbers 
     1.0000   1.0000   1.0000   1.0000   1.0000   1.0000   1.0000   1.0000
     1.0000   1.0000   1.0000   1.0000   1.0000   1.0000   1.0000   1.0000
     1.0000   1.0000   1.0000   1.0000   1.0000   1.0000   0.0000   0.0000
     0.0000   0.0000

          k = 0.0000 0.2699 0.0000 (235019 PWs)   bands (ev):

   -27.7501 -27.6453 -26.9662 -26.8978 -17.9101 -17.2747 -12.0729 -11.4697
    -9.5641  -9.2344  -8.6966  -8.5797  -7.9827  -7.6267  -6.5724  -6.2090
    -5.7377  -5.6525  -4.7581  -4.4795  -3.5113  -3.2360   2.4474   3.0750
     3.6972   4.0663

     occupation numbers 
     1.0000   1.0000   1.0000   1.0000   1.0000   1.0000   1.0000   1.0000
     1.0000   1.0000   1.0000   1.0000   1.0000   1.0000   1.0000   1.0000
     1.0000   1.0000   1.0000   1.0000   1.0000   1.0000   0.0000   0.0000
     0.0000   0.0000

          k = 0.1429 0.0000 0.0000 (235067 PWs)   bands (ev):

   -27.9987 -27.7315 -26.6140 -26.4993 -18.5439 -15.2776 -13.4278 -10.9195
   -10.2072  -9.9754  -9.6980  -8.4303  -7.9819  -7.5707  -7.3885  -5.9041
    -5.7134  -5.3659  -4.8076  -4.4424  -4.1412  -3.5070   1.2231   3.9763
     4.6402   5.0674

     occupation numbers 
     1.0000   1.0000   1.0000   1.0000   1.0000   1.0000   1.0000   1.0000
     1.0000   1.0000   1.0000   1.0000   1.0000   1.0000   1.0000   1.0000
     1.0000   1.0000   1.0000   1.0000   1.0000   1.0000   0.0000   0.0000
     0.0000   0.0000

          k = 0.1429 0.0900 0.0000 (235035 PWs)   bands (ev):

   -27.9497 -27.6940 -26.6714 -26.5529 -18.4432 -15.6239 -13.1572 -10.8834
   -10.0963 -10.0513  -9.5512  -8.4963  -7.9840  -7.7353  -7.2585  -5.9985
    -5.7512  -5.3224  -4.7768  -4.4276  -4.1871  -3.6178   1.4174   4.2484
     4.6264   5.0817

     occupation numbers 
     1.0000   1.0000   1.0000   1.0000   1.0000   1.0000   1.0000   1.0000
     1.0000   1.0000   1.0000   1.0000   1.0000   1.0000   1.0000   1.0000
     1.0000   1.0000   1.0000   1.0000   1.0000   1.0000   0.0000   0.0000
     0.0000   0.0000

          k = 0.1429 0.1800 0.0000 (234986 PWs)   bands (ev):

   -27.8148 -27.6017 -26.8123 -26.6938 -18.1463 -16.3184 -12.6225 -10.9827
   -10.0596  -9.8806  -9.1487  -8.6831  -8.1211  -8.0063  -6.9193  -6.0573
    -5.8089  -5.4874  -4.8008  -4.3422  -4.2959  -3.7930   1.9501   4.3349
     4.9053   5.1116

     occupation numbers 
     1.0000   1.0000   1.0000   1.0000   1.0000   1.0000   1.0000   1.0000
     1.0000   1.0000   1.0000   1.0000   1.0000   1.0000   1.0000   1.0000
     1.0000   1.0000   1.0000   1.0000   1.0000   1.0000   0.0000   0.0000
     0.0000   0.0000

          k = 0.1429 0.2699 0.0000 (234995 PWs)   bands (ev):

   -27.6403 -27.5420 -26.9243 -26.8595 -17.6689 -17.0409 -12.0242 -11.4326
    -9.8007  -9.7005  -8.8926  -8.8914  -8.3244  -8.1152  -6.4756  -6.0734
    -5.8433  -5.8369  -4.8125  -4.6222  -4.0815  -3.9081   2.7126   3.5868
     5.0778   5.1192

     occupation numbers 
     1.0000   1.0000   1.0000   1.0000   1.0000   1.0000   1.0000   1.0000
     1.0000   1.0000   1.0000   1.0000   1.0000   1.0000   1.0000   1.0000
     1.0000   1.0000   1.0000   1.0000   1.0000   1.0000   0.0000   0.0000
     0.0000   0.0000

          k = 0.2857 0.0000 0.0000 (234917 PWs)   bands (ev):

   -27.6376 -27.4150 -26.6529 -26.5410 -17.7881 -14.5476 -13.5627 -11.2534
   -10.4734 -10.3791  -9.9151  -9.1456  -9.1138  -7.8649  -7.0846  -6.4199
    -6.3572  -6.0387  -5.6417  -4.6963  -4.6158  -4.3522   2.0892   3.8551
     5.9347   6.8956

     occupation numbers 
     1.0000   1.0000   1.0000   1.0000   1.0000   1.0000   1.0000   1.0000
     1.0000   1.0000   1.0000   1.0000   1.0000   1.0000   1.0000   1.0000
     1.0000   1.0000   1.0000   1.0000   1.0000   1.0000   0.0000   0.0000
     0.0000   0.0000

          k = 0.2857 0.0900 0.0000 (234913 PWs)   bands (ev):

   -27.6000 -27.3872 -26.6900 -26.5770 -17.6930 -14.9422 -13.3171 -11.1481
   -10.7478 -10.3875  -9.7523  -9.3263  -8.8176  -8.0562  -7.0024  -6.4148
    -6.3719  -5.8191  -5.4877  -4.8467  -4.6651  -4.3507   2.2119   4.0744
     5.8151   6.6057

     occupation numbers 
     1.0000   1.0000   1.0000   1.0000   1.0000   1.0000   1.0000   1.0000
     1.0000   1.0000   1.0000   1.0000   1.0000   1.0000   1.0000   1.0000
     1.0000   1.0000   1.0000   1.0000   1.0000   1.0000   0.0000   0.0000
     0.0000   0.0000

          k = 0.2857 0.1800 0.0000 (234948 PWs)   bands (ev):

   -27.4971 -27.3200 -26.7812 -26.6733 -17.4118 -15.6492 -12.9241 -11.3098
   -10.9220 -10.4519  -9.4362  -9.4177  -8.5229  -8.3428  -6.8118  -6.3525
    -6.3136  -5.5131  -5.2413  -5.2342  -4.5895  -4.4578   2.5945   4.5205
     5.3806   6.4952

     occupation numbers 
     1.0000   1.0000   1.0000   1.0000   1.0000   1.0000   1.0000   1.0000
     1.0000   1.0000   1.0000   1.0000   1.0000   1.0000   1.0000   1.0000
     1.0000   1.0000   1.0000   1.0000   1.0000   1.0000   0.0000   0.0000
     0.0000   0.0000

          k = 0.2857 0.2699 0.0000 (234926 PWs)   bands (ev):

   -27.3640 -27.2828 -26.8476 -26.7911 -16.9574 -16.3544 -12.4706 -11.9235
   -10.6957 -10.5386  -9.4382  -9.3683  -8.3707  -8.3579  -6.5314  -6.3165
    -6.1643  -5.8012  -5.2189  -5.1654  -4.5128  -4.5089   3.2494   4.0967
     5.4874   5.8752

     occupation numbers 
     1.0000   1.0000   1.0000   1.0000   1.0000   1.0000   1.0000   1.0000
     1.0000   1.0000   1.0000   1.0000   1.0000   1.0000   1.0000   1.0000
     1.0000   1.0000   1.0000   1.0000   1.0000   1.0000   0.0000   0.0000
     0.0000   0.0000

          k = 0.4286 0.0000 0.0000 (234889 PWs)   bands (ev):

   -27.1911 -27.0238 -26.8315 -26.7053 -16.5594 -14.9501 -13.3962 -11.9273
   -11.2441 -10.4421  -9.6414  -9.4794  -9.2820  -8.4994  -7.2056  -6.8780
    -6.3972  -6.2146  -6.1050  -5.4038  -4.8455  -4.7446   3.1873   4.5714
     4.5892   6.0151

     occupation numbers 
     1.0000   1.0000   1.0000   1.0000   1.0000   1.0000   1.0000   1.0000
     1.0000   1.0000   1.0000   1.0000   1.0000   1.0000   1.0000   1.0000
     1.0000   1.0000   1.0000   1.0000   1.0000   1.0000   0.0000   0.0000
     0.0000   0.0000

          k = 0.4286 0.0900 0.0000 (234845 PWs)   bands (ev):

   -27.1740 -27.0140 -26.8398 -26.7170 -16.4753 -14.9105 -13.6889 -12.2626
   -11.0450 -10.3535  -9.7302  -9.6515  -8.9496  -8.5482  -6.9918  -6.6737
    -6.5315  -6.4395  -5.7975  -5.5190  -4.7631  -4.6492   3.2661   4.5957
     4.6324   5.7607

     occupation numbers 
     1.0000   1.0000   1.0000   1.0000   1.0000   1.0000   1.0000   1.0000
     1.0000   1.0000   1.0000   1.0000   1.0000   1.0000   1.0000   1.0000
     1.0000   1.0000   1.0000   1.0000   1.0000   1.0000   0.0000   0.0000
     0.0000   0.0000

          k = 0.4286 0.1800 0.0000 (234812 PWs)   bands (ev):

   -27.1275 -26.9970 -26.8545 -26.7500 -16.2261 -14.9183 -14.1146 -12.9080
   -10.7590 -10.3783  -9.8787  -9.7596  -8.5506  -8.4532  -6.8009  -6.6124
    -6.5458  -6.1940  -5.5867  -5.5371  -4.6293  -4.6040   3.5245   4.5297
     4.8952   5.3950

     occupation numbers 
     1.0000   1.0000   1.0000   1.0000   1.0000   1.0000   1.0000   1.0000
     1.0000   1.0000   1.0000   1.0000   1.0000   1.0000   1.0000   1.0000
     1.0000   1.0000   1.0000   1.0000   1.0000   1.0000   0.0000   0.0000
     0.0000   0.0000

          k = 0.4286 0.2699 0.0000 (234805 PWs)   bands (ev):

   -27.0658 -27.0119 -26.8416 -26.7970 -15.8257 -15.3191 -14.0038 -13.5338
   -10.5979 -10.4988  -9.9131  -9.8848  -8.3039  -8.2880  -6.9011  -6.8189
    -6.0460  -5.7472  -5.6356  -5.4696  -4.6454  -4.6096   3.9424   4.3218
     5.2048   5.2408

     occupation numbers 
     1.0000   1.0000   1.0000   1.0000   1.0000   1.0000   1.0000   1.0000
     1.0000   1.0000   1.0000   1.0000   1.0000   1.0000   1.0000   1.0000
     1.0000   1.0000   1.0000   1.0000   1.0000   1.0000   0.0000   0.0000
     0.0000   0.0000

     the Fermi energy is    -0.5017 ev

!    total energy              =    -240.24633970 Ry
     estimated scf accuracy    <          9.2E-09 Ry
     smearing contrib. (-TS)   =      -0.00000000 Ry
     internal energy E=F+TS    =    -240.24633970 Ry

     The total energy is F=E-TS. E is the sum of the following terms:
     one-electron contribution =   -1261.24042521 Ry
     hartree contribution      =     644.44750357 Ry
     xc contribution           =     -51.69352019 Ry
     ewald contribution        =     428.24010214 Ry

     convergence has been achieved in   8 iterations

     negative rho (up, down):  2.198E-06 0.000E+00

     Forces acting on atoms (cartesian axes, Ry/au):

     atom    1 type  1   force =     0.00000000    0.00005212   -0.00001326
     atom    2 type  1   force =     0.00000000    0.00005212    0.00001326
     atom    3 type  1   force =     0.00000000   -0.00005212   -0.00001326
     atom    4 type  1   force =     0.00000000   -0.00005212    0.00001326
     atom    5 type  2   force =     0.00000000   -0.01041596   -0.00002492
     atom    6 type  2   force =     0.00000000   -0.01041596    0.00002492
     atom    7 type  2   force =     0.00000000    0.01041596   -0.00002492
     atom    8 type  2   force =     0.00000000    0.01041596    0.00002492
     The non-local contrib.  to forces
     atom    1 type  1   force =     0.00000000   -0.16656495    0.36461043
     atom    2 type  1   force =    -0.00000000   -0.16656495   -0.36461043
     atom    3 type  1   force =     0.00000000    0.16656495    0.36461043
     atom    4 type  1   force =     0.00000000    0.16656495   -0.36461043
     atom    5 type  2   force =     0.00000000   -1.02289639    2.26156926
     atom    6 type  2   force =    -0.00000000   -1.02289639   -2.26156926
     atom    7 type  2   force =     0.00000000    1.02289639    2.26156926
     atom    8 type  2   force =     0.00000000    1.02289639   -2.26156926
     The ionic contribution  to forces
     atom    1 type  1   force =     0.00000000    1.00118398    2.94510005
     atom    2 type  1   force =    -0.00000000    1.00118398   -2.94510005
     atom    3 type  1   force =    -0.00000000   -1.00118398    2.94510005
     atom    4 type  1   force =    -0.00000000   -1.00118398   -2.94510005
     atom    5 type  2   force =    -0.00000000    3.87404463  -44.60717445
     atom    6 type  2   force =     0.00000000    3.87404463   44.60717445
     atom    7 type  2   force =    -0.00000000   -3.87404463  -44.60717445
     atom    8 type  2   force =    -0.00000000   -3.87404463   44.60717445
     The local contribution  to forces
     atom    1 type  1   force =     0.00000000   -0.83557864   -3.30697003
     atom    2 type  1   force =     0.00000000   -0.83557864    3.30697003
     atom    3 type  1   force =    -0.00000000    0.83557864   -3.30697003
     atom    4 type  1   force =    -0.00000000    0.83557864    3.30697003
     atom    5 type  2   force =     0.00000000   -2.86154809   42.34540288
     atom    6 type  2   force =     0.00000000   -2.86154809  -42.34540288
     atom    7 type  2   force =     0.00000000    2.86154809   42.34540288
     atom    8 type  2   force =     0.00000000    2.86154809  -42.34540288
     The core correction contribution to forces
     atom    1 type  1   force =     0.00000000    0.00101053   -0.00269006
     atom    2 type  1   force =     0.00000000    0.00101053    0.00269006
     atom    3 type  1   force =    -0.00000000   -0.00101053   -0.00269006
     atom    4 type  1   force =    -0.00000000   -0.00101053    0.00269006
     atom    5 type  2   force =     0.00000000    0.00000000    0.00000000
     atom    6 type  2   force =     0.00000000    0.00000000    0.00000000
     atom    7 type  2   force =     0.00000000    0.00000000    0.00000000
     atom    8 type  2   force =     0.00000000    0.00000000    0.00000000
     The Hubbard contrib.    to forces
     atom    1 type  1   force =     0.00000000    0.00000000    0.00000000
     atom    2 type  1   force =     0.00000000    0.00000000    0.00000000
     atom    3 type  1   force =     0.00000000    0.00000000    0.00000000
     atom    4 type  1   force =     0.00000000    0.00000000    0.00000000
     atom    5 type  2   force =     0.00000000    0.00000000    0.00000000
     atom    6 type  2   force =     0.00000000    0.00000000    0.00000000
     atom    7 type  2   force =     0.00000000    0.00000000    0.00000000
     atom    8 type  2   force =     0.00000000    0.00000000    0.00000000
     The SCF correction term to forces
     atom    1 type  1   force =     0.00000000    0.00000120   -0.00006365
     atom    2 type  1   force =    -0.00000000    0.00000120    0.00006365
     atom    3 type  1   force =    -0.00000000   -0.00000120   -0.00006365
     atom    4 type  1   force =     0.00000000   -0.00000120    0.00006365
     atom    5 type  2   force =     0.00000000   -0.00001610    0.00017740
     atom    6 type  2   force =     0.00000000   -0.00001610   -0.00017740
     atom    7 type  2   force =    -0.00000000    0.00001610    0.00017740
     atom    8 type  2   force =     0.00000000    0.00001610   -0.00017740

     Total force =     0.020832     Total SCF correction =     0.000378


     Computing stress (Cartesian axis) and pressure


     negative rho (up, down):  2.198E-06 0.000E+00
          total   stress  (Ry/bohr**3)                   (kbar)     P=        0.07
   0.00000069   0.00000000   0.00000000            0.10        0.00        0.00
   0.00000000   0.00000048   0.00000000            0.00        0.07        0.00
   0.00000000   0.00000000   0.00000027            0.00        0.00        0.04

     kinetic stress (kbar)   9185.45      0.00      0.00
                                0.00   8993.50      0.00
                                0.00      0.00   8359.09

     local   stress (kbar)-162656.32      0.00     -0.00
                                0.00-164140.81     -0.00
                               -0.00     -0.00 157330.77

     nonloc. stress (kbar)   1186.72      0.00      0.00
                                0.00   1140.20      0.00
                                0.00      0.00    972.41

     hartree stress (kbar)  81602.54     -0.00      0.00
                               -0.00  82035.42     -0.00
                                0.00     -0.00 -75746.90

     exc-cor stress (kbar)  -2153.36     -0.00      0.00
                               -0.00  -2149.06     -0.00
                                0.00     -0.00  -2142.89

     corecor stress (kbar)    -74.03      0.00     -0.00
                                0.00    -73.86     -0.00
                               -0.00     -0.00    -72.92

     ewald   stress (kbar)  72909.11     -0.00      0.00
                               -0.00  74194.68      0.00
                                0.00      0.00 -88699.53

     hubbard stress (kbar)      0.00      0.00      0.00
                                0.00      0.00      0.00
                                0.00      0.00      0.00

     DFT-D   stress (kbar)      0.00      0.00      0.00
                                0.00      0.00      0.00
                                0.00      0.00      0.00

     XDM     stress (kbar)      0.00      0.00      0.00
                                0.00      0.00      0.00
                                0.00      0.00      0.00

     dft-nl  stress (kbar)      0.00      0.00      0.00
                                0.00      0.00      0.00
                                0.00      0.00      0.00

     TS-vdW  stress (kbar)      0.00      0.00      0.00
                                0.00      0.00      0.00
                                0.00      0.00      0.00

     MDB     stress (kbar)      0.00      0.00      0.00
                                0.00      0.00      0.00
                                0.00      0.00      0.00

     3D-RISM stress (kbar)      0.00      0.00      0.00
                                0.00      0.00      0.00
                                0.00      0.00      0.00


     BFGS Geometry Optimization
     Energy error            =      0.0E+00 Ry
     Gradient error          =      1.0E-02 Ry/Bohr
     Cell gradient error     =      1.0E-01 kbar

     number of scf cycles    =   1
     number of bfgs steps    =   0

     enthalpy           new  =    -240.2463396952 Ry

     new trust radius        =       0.0104159855 bohr
     new conv_thr            =       0.0000000100 Ry

     new unit-cell volume =   1078.65663 a.u.^3 (   159.84042 Ang^3 )
     density =      1.28858 g/cm^3

CELL_PARAMETERS (angstrom)
   2.628536523   0.000000000   0.000000000
   0.000000000   4.173097185   0.000000000
   0.000000000   0.000000000  14.571830239

ATOMIC_POSITIONS (crystal)
C             0.5000000000        0.1408865500        0.0354707420
C             0.0000000000        0.6408865500       -0.0354707420
C             0.0000000000        0.3591134500        0.0354707420
C             0.5000000000        0.8591134500       -0.0354707420
F             0.5000000000       -0.0013208303       -0.1212226466
F             0.0000000000        0.4986791697        0.1212226466
F             0.0000000000        0.5013208303       -0.1212226466
F             0.5000000000        0.0013208303        0.1212226466



     Writing config-only to output data dir ../tmp/fgz.save/
     NEW-OLD atomic charge density approx. for the potential

     negative rho (up, down):  1.530E-04 0.000E+00
     extrapolated charge   44.00129, renormalised to   44.00000

     total cpu time spent up to now is     2000.9 secs

     Self-consistent Calculation

     iteration #  1     ecut=   550.00 Ry     beta= 0.70
     Davidson diagonalization with overlap

---- Real-time Memory Report at c_bands before calling an iterative solver
           163 MiB given to the printing process from OS
             0 MiB allocation reported by mallinfo(arena+hblkhd)
        344929 MiB available memory on the node where the printing process lives
------------------
     c_bands:  1 eigenvalues not converged
     ethr =  1.00E-06,  avg # of iterations =  4.4

     Threshold (ethr) on eigenvalues was too large:
     Diagonalizing with lowered threshold

     Davidson diagonalization with overlap

---- Real-time Memory Report at c_bands before calling an iterative solver
           163 MiB given to the printing process from OS
             0 MiB allocation reported by mallinfo(arena+hblkhd)
        344932 MiB available memory on the node where the printing process lives
------------------
     ethr =  8.28E-08,  avg # of iterations =  1.8

     negative rho (up, down):  3.829E-05 0.000E+00

     total cpu time spent up to now is     2433.9 secs

     total energy              =    -240.24668993 Ry
     estimated scf accuracy    <       0.00003701 Ry

     iteration #  2     ecut=   550.00 Ry     beta= 0.70
     Davidson diagonalization with overlap

---- Real-time Memory Report at c_bands before calling an iterative solver
           163 MiB given to the printing process from OS
             0 MiB allocation reported by mallinfo(arena+hblkhd)
        344913 MiB available memory on the node where the printing process lives
------------------
     ethr =  8.41E-08,  avg # of iterations =  2.4

     negative rho (up, down):  6.529E-06 0.000E+00

     total cpu time spent up to now is     2608.7 secs

     total energy              =    -240.24669701 Ry
     estimated scf accuracy    <       0.00000198 Ry

     iteration #  3     ecut=   550.00 Ry     beta= 0.70
     Davidson diagonalization with overlap

---- Real-time Memory Report at c_bands before calling an iterative solver
           163 MiB given to the printing process from OS
             0 MiB allocation reported by mallinfo(arena+hblkhd)
        344926 MiB available memory on the node where the printing process lives
------------------
     ethr =  4.51E-09,  avg # of iterations =  2.0

     negative rho (up, down):  2.812E-06 0.000E+00

     total cpu time spent up to now is     2773.4 secs

     total energy              =    -240.24669709 Ry
     estimated scf accuracy    <       0.00000041 Ry

     iteration #  4     ecut=   550.00 Ry     beta= 0.70
     Davidson diagonalization with overlap

---- Real-time Memory Report at c_bands before calling an iterative solver
           163 MiB given to the printing process from OS
             0 MiB allocation reported by mallinfo(arena+hblkhd)
        344913 MiB available memory on the node where the printing process lives
------------------
     ethr =  9.39E-10,  avg # of iterations =  2.6

     negative rho (up, down):  2.201E-06 0.000E+00

     total cpu time spent up to now is     2970.7 secs

     total energy              =    -240.24669720 Ry
     estimated scf accuracy    <       0.00000019 Ry

     iteration #  5     ecut=   550.00 Ry     beta= 0.70
     Davidson diagonalization with overlap

---- Real-time Memory Report at c_bands before calling an iterative solver
           163 MiB given to the printing process from OS
             0 MiB allocation reported by mallinfo(arena+hblkhd)
        344903 MiB available memory on the node where the printing process lives
------------------
     ethr =  4.34E-10,  avg # of iterations =  2.0

     negative rho (up, down):  2.211E-06 0.000E+00

     total cpu time spent up to now is     3130.3 secs

     End of self-consistent calculation

          k = 0.0000 0.0000 0.0000 (235071 PWs)   bands (ev):

   -28.1614 -27.8796 -26.6349 -26.5178 -18.7818 -15.5104 -13.5098 -11.1305
   -10.3280  -9.9482  -8.6529  -8.2620  -7.6163  -7.5450  -7.2829  -5.4191
    -5.2759  -5.2060  -4.5670  -4.2386  -4.0054  -2.6773   0.8705   3.3161
     3.4442   4.4918

     occupation numbers 
     1.0000   1.0000   1.0000   1.0000   1.0000   1.0000   1.0000   1.0000
     1.0000   1.0000   1.0000   1.0000   1.0000   1.0000   1.0000   1.0000
     1.0000   1.0000   1.0000   1.0000   1.0000   1.0000   0.0000   0.0000
     0.0000   0.0000

          k = 0.0000 0.0900 0.0000 (235005 PWs)   bands (ev):

   -28.1094 -27.8402 -26.6982 -26.5768 -18.6796 -15.8448 -13.2441 -11.0617
   -10.1341 -10.0139  -8.5703  -8.2798  -7.7726  -7.3961  -7.3024  -5.5042
    -5.4224  -5.3394  -4.6575  -4.1793  -3.9354  -2.7563   1.1099   3.3604
     3.4356   4.7883

     occupation numbers 
     1.0000   1.0000   1.0000   1.0000   1.0000   1.0000   1.0000   1.0000
     1.0000   1.0000   1.0000   1.0000   1.0000   1.0000   1.0000   1.0000
     1.0000   1.0000   1.0000   1.0000   1.0000   1.0000   0.0000   0.0000
     0.0000   0.0000

          k = 0.0000 0.1800 0.0000 (235081 PWs)   bands (ev):

   -27.9666 -27.7434 -26.8526 -26.7310 -18.3782 -16.5331 -12.6942 -11.0734
    -9.9871  -9.6737  -8.3679  -8.3363  -8.1954  -7.4009  -7.0141  -5.8318
    -5.6689  -5.4916  -4.8007  -4.2181  -3.7525  -2.9597   1.7205   3.3675
     3.4910   4.6339

     occupation numbers 
     1.0000   1.0000   1.0000   1.0000   1.0000   1.0000   1.0000   1.0000
     1.0000   1.0000   1.0000   1.0000   1.0000   1.0000   1.0000   1.0000
     1.0000   1.0000   1.0000   1.0000   1.0000   1.0000   0.0000   0.0000
     0.0000   0.0000

          k = 0.0000 0.2699 0.0000 (235019 PWs)   bands (ev):

   -27.7831 -27.6814 -26.9747 -26.9090 -17.8943 -17.2593 -12.0689 -11.4722
    -9.5705  -9.2454  -8.7071  -8.5915  -7.9973  -7.6453  -6.5716  -6.2084
    -5.7376  -5.6544  -4.7587  -4.4770  -3.5027  -3.2253   2.4763   3.0931
     3.7142   4.0984

     occupation numbers 
     1.0000   1.0000   1.0000   1.0000   1.0000   1.0000   1.0000   1.0000
     1.0000   1.0000   1.0000   1.0000   1.0000   1.0000   1.0000   1.0000
     1.0000   1.0000   1.0000   1.0000   1.0000   1.0000   0.0000   0.0000
     0.0000   0.0000

          k = 0.1429 0.0000 0.0000 (235067 PWs)   bands (ev):

   -28.0242 -27.7590 -26.6328 -26.5189 -18.5270 -15.2617 -13.4182 -10.9237
   -10.2069  -9.9896  -9.7061  -8.4399  -8.0004  -7.5896  -7.3934  -5.9083
    -5.7242  -5.3679  -4.7993  -4.4443  -4.1272  -3.4910   1.2576   4.0054
     4.6496   5.0787

     occupation numbers 
     1.0000   1.0000   1.0000   1.0000   1.0000   1.0000   1.0000   1.0000
     1.0000   1.0000   1.0000   1.0000   1.0000   1.0000   1.0000   1.0000
     1.0000   1.0000   1.0000   1.0000   1.0000   1.0000   0.0000   0.0000
     0.0000   0.0000

          k = 0.1429 0.0900 0.0000 (235035 PWs)   bands (ev):

   -27.9758 -27.7225 -26.6891 -26.5718 -18.4265 -15.6086 -13.1476 -10.8892
   -10.0993 -10.0620  -9.5587  -8.5070  -8.0021  -7.7526  -7.2616  -5.9979
    -5.7597  -5.3301  -4.7730  -4.4273  -4.1740  -3.6014   1.4516   4.2791
     4.6359   5.0931

     occupation numbers 
     1.0000   1.0000   1.0000   1.0000   1.0000   1.0000   1.0000   1.0000
     1.0000   1.0000   1.0000   1.0000   1.0000   1.0000   1.0000   1.0000
     1.0000   1.0000   1.0000   1.0000   1.0000   1.0000   0.0000   0.0000
     0.0000   0.0000

          k = 0.1429 0.1800 0.0000 (234986 PWs)   bands (ev):

   -27.8430 -27.6332 -26.8264 -26.7103 -18.1300 -16.3033 -12.6144 -10.9899
   -10.0653  -9.8896  -9.1575  -8.6949  -8.1327  -8.0233  -6.9203  -6.0526
    -5.8130  -5.4961  -4.8019  -4.3358  -4.2929  -3.7773   1.9837   4.3592
     4.9337   5.1240

     occupation numbers 
     1.0000   1.0000   1.0000   1.0000   1.0000   1.0000   1.0000   1.0000
     1.0000   1.0000   1.0000   1.0000   1.0000   1.0000   1.0000   1.0000
     1.0000   1.0000   1.0000   1.0000   1.0000   1.0000   0.0000   0.0000
     0.0000   0.0000

          k = 0.1429 0.2699 0.0000 (234995 PWs)   bands (ev):

   -27.6726 -27.5771 -26.9341 -26.8720 -17.6532 -17.0256 -12.0201 -11.4344
    -9.8100  -9.7131  -8.9030  -8.9016  -8.3336  -8.1298  -6.4754  -6.0693
    -5.8431  -5.8402  -4.8137  -4.6208  -4.0769  -3.8986   2.7460   3.6189
     5.0993   5.1346

     occupation numbers 
     1.0000   1.0000   1.0000   1.0000   1.0000   1.0000   1.0000   1.0000
     1.0000   1.0000   1.0000   1.0000   1.0000   1.0000   1.0000   1.0000
     1.0000   1.0000   1.0000   1.0000   1.0000   1.0000   0.0000   0.0000
     0.0000   0.0000

          k = 0.2857 0.0000 0.0000 (234917 PWs)   bands (ev):

   -27.6625 -27.4415 -26.6730 -26.5619 -17.7719 -14.5356 -13.5530 -11.2567
   -10.4896 -10.3877  -9.9163  -9.1552  -9.1181  -7.8810  -7.0794  -6.4372
    -6.3572  -6.0239  -5.6309  -4.7048  -4.6191  -4.3487   2.1228   3.8979
     5.9599   6.9106

     occupation numbers 
     1.0000   1.0000   1.0000   1.0000   1.0000   1.0000   1.0000   1.0000
     1.0000   1.0000   1.0000   1.0000   1.0000   1.0000   1.0000   1.0000
     1.0000   1.0000   1.0000   1.0000   1.0000   1.0000   0.0000   0.0000
     0.0000   0.0000

          k = 0.2857 0.0900 0.0000 (234913 PWs)   bands (ev):

   -27.6254 -27.4144 -26.7094 -26.5974 -17.6770 -14.9295 -13.3084 -11.1526
   -10.7589 -10.3962  -9.7550  -9.3356  -8.8262  -8.0678  -7.0011  -6.4261
    -6.3673  -5.8117  -5.4816  -4.8523  -4.6727  -4.3425   2.2460   4.1166
     5.8382   6.6249

     occupation numbers 
     1.0000   1.0000   1.0000   1.0000   1.0000   1.0000   1.0000   1.0000
     1.0000   1.0000   1.0000   1.0000   1.0000   1.0000   1.0000   1.0000
     1.0000   1.0000   1.0000   1.0000   1.0000   1.0000   0.0000   0.0000
     0.0000   0.0000

          k = 0.2857 0.1800 0.0000 (234948 PWs)   bands (ev):

   -27.5240 -27.3495 -26.7980 -26.6921 -17.3961 -15.6355 -12.9170 -11.3139
   -10.9294 -10.4609  -9.4436  -9.4283  -8.5341  -8.3489  -6.8141  -6.3556
    -6.3055  -5.5199  -5.2404  -5.2372  -4.5941  -4.4431   2.6296   4.5660
     5.3963   6.3458

     occupation numbers 
     1.0000   1.0000   1.0000   1.0000   1.0000   1.0000   1.0000   1.0000
     1.0000   1.0000   1.0000   1.0000   1.0000   1.0000   1.0000   1.0000
     1.0000   1.0000   1.0000   1.0000   1.0000   1.0000   0.0000   0.0000
     0.0000   0.0000

          k = 0.2857 0.2699 0.0000 (234926 PWs)   bands (ev):

   -27.3938 -27.3149 -26.8615 -26.8072 -16.9422 -16.3398 -12.4658 -11.9223
   -10.7055 -10.5488  -9.4480  -9.3780  -8.3781  -8.3691  -6.5323  -6.3093
    -6.1645  -5.8100  -5.2208  -5.1668  -4.5110  -4.4974   3.2857   4.1361
     5.5110   5.9062

     occupation numbers 
     1.0000   1.0000   1.0000   1.0000   1.0000   1.0000   1.0000   1.0000
     1.0000   1.0000   1.0000   1.0000   1.0000   1.0000   1.0000   1.0000
     1.0000   1.0000   1.0000   1.0000   1.0000   1.0000   0.0000   0.0000
     0.0000   0.0000

          k = 0.4286 0.0000 0.0000 (234889 PWs)   bands (ev):

   -27.2149 -27.0487 -26.8535 -26.7281 -16.5452 -14.9388 -13.3918 -11.9339
   -11.2465 -10.4502  -9.6454  -9.4858  -9.2871  -8.5120  -7.1955  -6.8626
    -6.3913  -6.2044  -6.1206  -5.4158  -4.8552  -4.7503   3.2179   4.6163
     4.6227   6.0711

     occupation numbers 
     1.0000   1.0000   1.0000   1.0000   1.0000   1.0000   1.0000   1.0000
     1.0000   1.0000   1.0000   1.0000   1.0000   1.0000   1.0000   1.0000
     1.0000   1.0000   1.0000   1.0000   1.0000   1.0000   0.0000   0.0000
     0.0000   0.0000

          k = 0.4286 0.0900 0.0000 (234845 PWs)   bands (ev):

   -27.1979 -27.0392 -26.8614 -26.7397 -16.4610 -14.8990 -13.6830 -12.2650
   -11.0506 -10.3653  -9.7366  -9.6570  -8.9549  -8.5559  -6.9855  -6.6602
    -6.5329  -6.4336  -5.8018  -5.5322  -4.7710  -4.6516   3.2975   4.6403
     4.6648   5.8116

     occupation numbers 
     1.0000   1.0000   1.0000   1.0000   1.0000   1.0000   1.0000   1.0000
     1.0000   1.0000   1.0000   1.0000   1.0000   1.0000   1.0000   1.0000
     1.0000   1.0000   1.0000   1.0000   1.0000   1.0000   0.0000   0.0000
     0.0000   0.0000

          k = 0.4286 0.1800 0.0000 (234812 PWs)   bands (ev):

   -27.1518 -27.0233 -26.8751 -26.7723 -16.2121 -14.9057 -14.1077 -12.9053
   -10.7686 -10.3900  -9.8875  -9.7669  -8.5582  -8.4581  -6.8038  -6.6084
    -6.5424  -6.1860  -5.5988  -5.5411  -4.6320  -4.5997   3.5582   4.5753
     4.9214   5.4387

     occupation numbers 
     1.0000   1.0000   1.0000   1.0000   1.0000   1.0000   1.0000   1.0000
     1.0000   1.0000   1.0000   1.0000   1.0000   1.0000   1.0000   1.0000
     1.0000   1.0000   1.0000   1.0000   1.0000   1.0000   0.0000   0.0000
     0.0000   0.0000

          k = 0.4286 0.2699 0.0000 (234805 PWs)   bands (ev):

   -27.0909 -27.0381 -26.8623 -26.8187 -15.8120 -15.3059 -13.9968 -13.5281
   -10.6085 -10.5092  -9.9225  -9.8930  -8.3136  -8.2962  -6.9028  -6.8184
    -6.0462  -5.7449  -5.6439  -5.4731  -4.6368  -4.6053   3.9808   4.3663
     5.2253   5.2733

     occupation numbers 
     1.0000   1.0000   1.0000   1.0000   1.0000   1.0000   1.0000   1.0000
     1.0000   1.0000   1.0000   1.0000   1.0000   1.0000   1.0000   1.0000
     1.0000   1.0000   1.0000   1.0000   1.0000   1.0000   0.0000   0.0000
     0.0000   0.0000

     the Fermi energy is    -0.4968 ev

!    total energy              =    -240.24669724 Ry
     estimated scf accuracy    <          5.9E-10 Ry
     smearing contrib. (-TS)   =      -0.00000000 Ry
     internal energy E=F+TS    =    -240.24669724 Ry

     The total energy is F=E-TS. E is the sum of the following terms:
     one-electron contribution =   -1261.50582632 Ry
     hartree contribution      =     644.57821535 Ry
     xc contribution           =     -51.70248197 Ry
     ewald contribution        =     428.38339570 Ry

     convergence has been achieved in   5 iterations

     negative rho (up, down):  2.211E-06 0.000E+00

     Forces acting on atoms (cartesian axes, Ry/au):

     atom    1 type  1   force =     0.00000000    0.00132505   -0.00283692
     atom    2 type  1   force =     0.00000000    0.00132505    0.00283692
     atom    3 type  1   force =     0.00000000   -0.00132505   -0.00283692
     atom    4 type  1   force =     0.00000000   -0.00132505    0.00283692
     atom    5 type  2   force =     0.00000000   -0.00670171   -0.00209367
     atom    6 type  2   force =    -0.00000000   -0.00670171    0.00209367
     atom    7 type  2   force =     0.00000000    0.00670171   -0.00209367
     atom    8 type  2   force =     0.00000000    0.00670171    0.00209367
     The non-local contrib.  to forces
     atom    1 type  1   force =     0.00000000   -0.16632026    0.36525329
     atom    2 type  1   force =     0.00000000   -0.16632026   -0.36525329
     atom    3 type  1   force =     0.00000000    0.16632026    0.36525329
     atom    4 type  1   force =     0.00000000    0.16632026   -0.36525329
     atom    5 type  2   force =    -0.00000000   -1.01374621    2.27352944
     atom    6 type  2   force =     0.00000000   -1.01374621   -2.27352944
     atom    7 type  2   force =     0.00000000    1.01374621    2.27352944
     atom    8 type  2   force =     0.00000000    1.01374621   -2.27352944
     The ionic contribution  to forces
     atom    1 type  1   force =     0.00000000    0.98322664    2.89036550
     atom    2 type  1   force =     0.00000000    0.98322664   -2.89036550
     atom    3 type  1   force =    -0.00000000   -0.98322664    2.89036550
     atom    4 type  1   force =     0.00000000   -0.98322664   -2.89036550
     atom    5 type  2   force =     0.00000000    3.97789185  -44.64486391
     atom    6 type  2   force =     0.00000000    3.97789185   44.64486391
     atom    7 type  2   force =    -0.00000000   -3.97789185  -44.64486391
     atom    8 type  2   force =     0.00000000   -3.97789185   44.64486391
     The local contribution  to forces
     atom    1 type  1   force =    -0.00000000   -0.81658187   -3.25578605
     atom    2 type  1   force =    -0.00000000   -0.81658187    3.25578605
     atom    3 type  1   force =     0.00000000    0.81658187   -3.25578605
     atom    4 type  1   force =     0.00000000    0.81658187    3.25578605
     atom    5 type  2   force =     0.00000000   -2.97085835   42.36920281
     atom    6 type  2   force =     0.00000000   -2.97085835  -42.36920281
     atom    7 type  2   force =     0.00000000    2.97085835   42.36920281
     atom    8 type  2   force =     0.00000000    2.97085835  -42.36920281
     The core correction contribution to forces
     atom    1 type  1   force =    -0.00000000    0.00100401   -0.00265889
     atom    2 type  1   force =    -0.00000000    0.00100401    0.00265889
     atom    3 type  1   force =    -0.00000000   -0.00100401   -0.00265889
     atom    4 type  1   force =     0.00000000   -0.00100401    0.00265889
     atom    5 type  2   force =     0.00000000    0.00000000    0.00000000
     atom    6 type  2   force =     0.00000000    0.00000000    0.00000000
     atom    7 type  2   force =     0.00000000    0.00000000    0.00000000
     atom    8 type  2   force =     0.00000000    0.00000000    0.00000000
     The Hubbard contrib.    to forces
     atom    1 type  1   force =     0.00000000    0.00000000    0.00000000
     atom    2 type  1   force =     0.00000000    0.00000000    0.00000000
     atom    3 type  1   force =     0.00000000    0.00000000    0.00000000
     atom    4 type  1   force =     0.00000000    0.00000000    0.00000000
     atom    5 type  2   force =     0.00000000    0.00000000    0.00000000
     atom    6 type  2   force =     0.00000000    0.00000000    0.00000000
     atom    7 type  2   force =     0.00000000    0.00000000    0.00000000
     atom    8 type  2   force =     0.00000000    0.00000000    0.00000000
     The SCF correction term to forces
     atom    1 type  1   force =     0.00000000   -0.00000346   -0.00001078
     atom    2 type  1   force =    -0.00000000   -0.00000346    0.00001078
     atom    3 type  1   force =    -0.00000000    0.00000346   -0.00001078
     atom    4 type  1   force =    -0.00000000    0.00000346    0.00001078
     atom    5 type  2   force =     0.00000000    0.00001100    0.00003799
     atom    6 type  2   force =     0.00000000    0.00001100   -0.00003799
     atom    7 type  2   force =     0.00000000   -0.00001100    0.00003799
     atom    8 type  2   force =     0.00000000   -0.00001100   -0.00003799

     Total force =     0.015375     Total SCF correction =     0.000082


     Computing stress (Cartesian axis) and pressure


     negative rho (up, down):  2.211E-06 0.000E+00
          total   stress  (Ry/bohr**3)                   (kbar)     P=        1.54
   0.00000275   0.00000000   0.00000000            0.40        0.00        0.00
   0.00000000   0.00001282   0.00000000            0.00        1.89        0.00
   0.00000000   0.00000000   0.00001574            0.00        0.00        2.32

     kinetic stress (kbar)   9187.34      0.00      0.00
                                0.00   8999.75      0.00
                                0.00      0.00   8356.87

     local   stress (kbar)-162681.06     -0.00      0.00
                               -0.00-164088.18      0.00
                                0.00      0.00 157270.86

     nonloc. stress (kbar)   1186.44      0.00      0.00
                                0.00   1140.61      0.00
                                0.00      0.00    970.66

     hartree stress (kbar)  81615.54     -0.00     -0.00
                               -0.00  82019.28      0.00
                               -0.00      0.00 -75728.50

     exc-cor stress (kbar)  -2153.69     -0.00      0.00
                               -0.00  -2149.47      0.00
                                0.00      0.00  -2143.08

     corecor stress (kbar)    -74.04     -0.00     -0.00
                               -0.00    -73.87      0.00
                               -0.00      0.00    -72.94

     ewald   stress (kbar)  72919.88     -0.00      0.00
                               -0.00  74153.77      0.00
                                0.00      0.00 -88651.56

     hubbard stress (kbar)      0.00      0.00      0.00
                                0.00      0.00      0.00
                                0.00      0.00      0.00

     DFT-D   stress (kbar)      0.00      0.00      0.00
                                0.00      0.00      0.00
                                0.00      0.00      0.00

     XDM     stress (kbar)      0.00      0.00      0.00
                                0.00      0.00      0.00
                                0.00      0.00      0.00

     dft-nl  stress (kbar)      0.00      0.00      0.00
                                0.00      0.00      0.00
                                0.00      0.00      0.00

     TS-vdW  stress (kbar)      0.00      0.00      0.00
                                0.00      0.00      0.00
                                0.00      0.00      0.00

     MDB     stress (kbar)      0.00      0.00      0.00
                                0.00      0.00      0.00
                                0.00      0.00      0.00

     3D-RISM stress (kbar)      0.00      0.00      0.00
                                0.00      0.00      0.00
                                0.00      0.00      0.00

     Energy error            =      3.6E-04 Ry
     Gradient error          =      6.7E-03 Ry/Bohr
     Cell gradient error     =      1.9E+00 kbar

     number of scf cycles    =   2
     number of bfgs steps    =   1

     enthalpy           old  =    -240.2463396952 Ry
     enthalpy           new  =    -240.2466972368 Ry

     CASE: enthalpy          _new < enthalpy          _old

     new trust radius        =       0.0114577229 bohr
     new conv_thr            =       0.0000000036 Ry

     new unit-cell volume =   1079.10742 a.u.^3 (   159.90722 Ang^3 )
     density =      1.28804 g/cm^3

CELL_PARAMETERS (angstrom)
   2.628743545   0.000000000   0.000000000
   0.000000000   4.174512391   0.000000000
   0.000000000   0.000000000  14.571830239

ATOMIC_POSITIONS (crystal)
C             0.5000000000        0.1410645054        0.0353630920
C             0.0000000000        0.6410645054       -0.0353630920
C             0.0000000000        0.3589354946        0.0353630920
C             0.5000000000        0.8589354946       -0.0353630920
F             0.5000000000       -0.0027468648       -0.1213023177
F            -0.0000000000        0.4972531352        0.1213023177
F             0.0000000000        0.5027468648       -0.1213023177
F             0.5000000000        0.0027468648        0.1213023177



     Writing config-only to output data dir ../tmp/fgz.save/
     NEW-OLD atomic charge density approx. for the potential

     negative rho (up, down):  3.473E-04 0.000E+00
     extrapolated charge   44.01838, renormalised to   44.00000

     total cpu time spent up to now is     3214.4 secs

     Self-consistent Calculation

     iteration #  1     ecut=   550.00 Ry     beta= 0.70
     Davidson diagonalization with overlap

---- Real-time Memory Report at c_bands before calling an iterative solver
           163 MiB given to the printing process from OS
             0 MiB allocation reported by mallinfo(arena+hblkhd)
        344873 MiB available memory on the node where the printing process lives
------------------
     ethr =  1.00E-06,  avg # of iterations =  5.8

     negative rho (up, down):  8.759E-05 0.000E+00

     total cpu time spent up to now is     3556.1 secs

     total energy              =    -240.24687588 Ry
     estimated scf accuracy    <       0.00010209 Ry

     iteration #  2     ecut=   550.00 Ry     beta= 0.70
     Davidson diagonalization with overlap

---- Real-time Memory Report at c_bands before calling an iterative solver
           163 MiB given to the printing process from OS
             0 MiB allocation reported by mallinfo(arena+hblkhd)
        344865 MiB available memory on the node where the printing process lives
------------------
     ethr =  2.32E-07,  avg # of iterations =  5.1

     negative rho (up, down):  5.909E-05 0.000E+00

     total cpu time spent up to now is     3858.5 secs

     total energy              =    -240.24697993 Ry
     estimated scf accuracy    <       0.00018050 Ry

     iteration #  3     ecut=   550.00 Ry     beta= 0.70
     Davidson diagonalization with overlap

---- Real-time Memory Report at c_bands before calling an iterative solver
           163 MiB given to the printing process from OS
             0 MiB allocation reported by mallinfo(arena+hblkhd)
        344863 MiB available memory on the node where the printing process lives
------------------
     ethr =  2.32E-07,  avg # of iterations =  2.1

     negative rho (up, down):  3.208E-05 0.000E+00

     total cpu time spent up to now is     4027.7 secs

     total energy              =    -240.24699958 Ry
     estimated scf accuracy    <       0.00001945 Ry

     iteration #  4     ecut=   550.00 Ry     beta= 0.70
     Davidson diagonalization with overlap

---- Real-time Memory Report at c_bands before calling an iterative solver
           163 MiB given to the printing process from OS
             0 MiB allocation reported by mallinfo(arena+hblkhd)
        344852 MiB available memory on the node where the printing process lives
------------------
     ethr =  4.42E-08,  avg # of iterations =  2.0

     negative rho (up, down):  2.951E-06 0.000E+00

     total cpu time spent up to now is     4194.6 secs

     total energy              =    -240.24699978 Ry
     estimated scf accuracy    <       0.00000524 Ry

     iteration #  5     ecut=   550.00 Ry     beta= 0.70
     Davidson diagonalization with overlap

---- Real-time Memory Report at c_bands before calling an iterative solver
           163 MiB given to the printing process from OS
             0 MiB allocation reported by mallinfo(arena+hblkhd)
        344853 MiB available memory on the node where the printing process lives
------------------
     ethr =  1.19E-08,  avg # of iterations =  2.5

     negative rho (up, down):  2.226E-06 0.000E+00

     total cpu time spent up to now is     4387.9 secs

     total energy              =    -240.24700131 Ry
     estimated scf accuracy    <       0.00000031 Ry

     iteration #  6     ecut=   550.00 Ry     beta= 0.70
     Davidson diagonalization with overlap

---- Real-time Memory Report at c_bands before calling an iterative solver
           163 MiB given to the printing process from OS
             0 MiB allocation reported by mallinfo(arena+hblkhd)
        344859 MiB available memory on the node where the printing process lives
------------------
     ethr =  7.07E-10,  avg # of iterations =  2.0

     negative rho (up, down):  2.246E-06 0.000E+00

     total cpu time spent up to now is     4551.9 secs

     total energy              =    -240.24700137 Ry
     estimated scf accuracy    <          4.6E-09 Ry

     iteration #  7     ecut=   550.00 Ry     beta= 0.70
     Davidson diagonalization with overlap

---- Real-time Memory Report at c_bands before calling an iterative solver
           163 MiB given to the printing process from OS
             0 MiB allocation reported by mallinfo(arena+hblkhd)
        344852 MiB available memory on the node where the printing process lives
------------------
     ethr =  1.04E-11,  avg # of iterations =  3.5

     negative rho (up, down):  2.250E-06 0.000E+00

     total cpu time spent up to now is     4790.0 secs

     End of self-consistent calculation

          k = 0.0000 0.0000 0.0000 (235071 PWs)   bands (ev):

   -28.1661 -27.8849 -26.6311 -26.5145 -18.7933 -15.5134 -13.5232 -11.1266
   -10.3297  -9.9513  -8.6673  -8.2627  -7.6320  -7.5475  -7.2937  -5.4187
    -5.2759  -5.2075  -4.5671  -4.2407  -4.0150  -2.6871   0.8632   3.3034
     3.4234   4.4843

     occupation numbers 
     1.0000   1.0000   1.0000   1.0000   1.0000   1.0000   1.0000   1.0000
     1.0000   1.0000   1.0000   1.0000   1.0000   1.0000   1.0000   1.0000
     1.0000   1.0000   1.0000   1.0000   1.0000   1.0000   0.0000   0.0000
     0.0000   0.0000

          k = 0.0000 0.0900 0.0000 (235005 PWs)   bands (ev):

   -28.1148 -27.8465 -26.6932 -26.5727 -18.6913 -15.8522 -13.2516 -11.0618
   -10.1380 -10.0123  -8.5851  -8.2814  -7.7865  -7.3969  -7.3149  -5.5011
    -5.4201  -5.3375  -4.6591  -4.1864  -3.9464  -2.7678   1.1005   3.3474
     3.4145   4.7821

     occupation numbers 
     1.0000   1.0000   1.0000   1.0000   1.0000   1.0000   1.0000   1.0000
     1.0000   1.0000   1.0000   1.0000   1.0000   1.0000   1.0000   1.0000
     1.0000   1.0000   1.0000   1.0000   1.0000   1.0000   0.0000   0.0000
     0.0000   0.0000

          k = 0.0000 0.1799 0.0000 (235081 PWs)   bands (ev):

   -27.9742 -27.7532 -26.8436 -26.7241 -18.3906 -16.5448 -12.6956 -11.0813
    -9.9765  -9.6809  -8.3715  -8.3522  -8.2028  -7.4173  -7.0117  -5.8248
    -5.6601  -5.4857  -4.8075  -4.2323  -3.7664  -2.9742   1.7060   3.3452
     3.4773   4.6242

     occupation numbers 
     1.0000   1.0000   1.0000   1.0000   1.0000   1.0000   1.0000   1.0000
     1.0000   1.0000   1.0000   1.0000   1.0000   1.0000   1.0000   1.0000
     1.0000   1.0000   1.0000   1.0000   1.0000   1.0000   0.0000   0.0000
     0.0000   0.0000

          k = 0.0000 0.2699 0.0000 (235019 PWs)   bands (ev):

   -27.7949 -27.6956 -26.9609 -26.8977 -17.9074 -17.2725 -12.0702 -11.4776
    -9.5631  -9.2512  -8.7084  -8.5970  -8.0148  -7.6638  -6.5641  -6.1990
    -5.7259  -5.6444  -4.7731  -4.4946  -3.5188  -3.2417   2.4564   3.0700
     3.7009   4.0870

     occupation numbers 
     1.0000   1.0000   1.0000   1.0000   1.0000   1.0000   1.0000   1.0000
     1.0000   1.0000   1.0000   1.0000   1.0000   1.0000   1.0000   1.0000
     1.0000   1.0000   1.0000   1.0000   1.0000   1.0000   0.0000   0.0000
     0.0000   0.0000

          k = 0.1428 0.0000 0.0000 (235067 PWs)   bands (ev):

   -28.0286 -27.7639 -26.6295 -26.5160 -18.5386 -15.2656 -13.4312 -10.9212
   -10.2082  -9.9939  -9.7239  -8.4400  -8.0140  -7.6007  -7.3940  -5.9053
    -5.7257  -5.3604  -4.7940  -4.4581  -4.1357  -3.5027   1.2489   4.0047
     4.6249   5.3946

     occupation numbers 
     1.0000   1.0000   1.0000   1.0000   1.0000   1.0000   1.0000   1.0000
     1.0000   1.0000   1.0000   1.0000   1.0000   1.0000   1.0000   1.0000
     1.0000   1.0000   1.0000   1.0000   1.0000   1.0000   0.0000   0.0000
     0.0000   0.0000

          k = 0.1428 0.0900 0.0000 (235035 PWs)   bands (ev):

   -27.9808 -27.7283 -26.6846 -26.5681 -18.4383 -15.6164 -13.1552 -10.8906
   -10.1049 -10.0615  -9.5743  -8.5096  -8.0153  -7.7616  -7.2608  -5.9890
    -5.7602  -5.3275  -4.7698  -4.4419  -4.1839  -3.6127   1.4413   4.2777
     4.6112   5.0779

     occupation numbers 
     1.0000   1.0000   1.0000   1.0000   1.0000   1.0000   1.0000   1.0000
     1.0000   1.0000   1.0000   1.0000   1.0000   1.0000   1.0000   1.0000
     1.0000   1.0000   1.0000   1.0000   1.0000   1.0000   0.0000   0.0000
     0.0000   0.0000

          k = 0.1428 0.1799 0.0000 (234986 PWs)   bands (ev):

   -27.8501 -27.6423 -26.8183 -26.7042 -18.1424 -16.3150 -12.6165 -10.9974
   -10.0578  -9.9017  -9.1697  -8.7014  -8.1364  -8.0359  -6.9172  -6.0381
    -5.8106  -5.4949  -4.8044  -4.3510  -4.3086  -3.7877   1.9696   4.3330
     4.9304   5.1091

     occupation numbers 
     1.0000   1.0000   1.0000   1.0000   1.0000   1.0000   1.0000   1.0000
     1.0000   1.0000   1.0000   1.0000   1.0000   1.0000   1.0000   1.0000
     1.0000   1.0000   1.0000   1.0000   1.0000   1.0000   0.0000   0.0000
     0.0000   0.0000

          k = 0.1428 0.2699 0.0000 (234995 PWs)   bands (ev):

   -27.6834 -27.5902 -26.9217 -26.8618 -17.6661 -17.0386 -12.0214 -11.4387
    -9.8100  -9.7253  -8.9067  -8.9064  -8.3417  -8.1421  -6.4698  -6.0577
    -5.8351  -5.8334  -4.8240  -4.6371  -4.0930  -3.9122   2.7272   3.5957
     5.0883   5.1208

     occupation numbers 
     1.0000   1.0000   1.0000   1.0000   1.0000   1.0000   1.0000   1.0000
     1.0000   1.0000   1.0000   1.0000   1.0000   1.0000   1.0000   1.0000
     1.0000   1.0000   1.0000   1.0000   1.0000   1.0000   0.0000   0.0000
     0.0000   0.0000

          k = 0.2857 0.0000 0.0000 (234917 PWs)   bands (ev):

   -27.6658 -27.4453 -26.6708 -26.5601 -17.7840 -14.5423 -13.5657 -11.2738
   -10.5033 -10.3919  -9.9165  -9.1604  -9.1148  -7.8885  -7.0650  -6.4531
    -6.3501  -6.0046  -5.6244  -4.7195  -4.6370  -4.3679   2.1104   3.9079
     5.9299   6.7315

     occupation numbers 
     1.0000   1.0000   1.0000   1.0000   1.0000   1.0000   1.0000   1.0000
     1.0000   1.0000   1.0000   1.0000   1.0000   1.0000   1.0000   1.0000
     1.0000   1.0000   1.0000   1.0000   1.0000   1.0000   0.0000   0.0000
     0.0000   0.0000

          k = 0.2857 0.0900 0.0000 (234913 PWs)   bands (ev):

   -27.6291 -27.4189 -26.7063 -26.5951 -17.6892 -14.9389 -13.3180 -11.1691
   -10.7707 -10.3990  -9.7568  -9.3402  -8.8270  -8.0705  -6.9922  -6.4366
    -6.3546  -5.7996  -5.4785  -4.8726  -4.6879  -4.3567   2.2332   4.1246
     5.8095   6.6176

     occupation numbers 
     1.0000   1.0000   1.0000   1.0000   1.0000   1.0000   1.0000   1.0000
     1.0000   1.0000   1.0000   1.0000   1.0000   1.0000   1.0000   1.0000
     1.0000   1.0000   1.0000   1.0000   1.0000   1.0000   0.0000   0.0000
     0.0000   0.0000

          k = 0.2857 0.1799 0.0000 (234948 PWs)   bands (ev):

   -27.5293 -27.3566 -26.7923 -26.6882 -17.4085 -15.6470 -12.9238 -11.3221
   -10.9446 -10.4652  -9.4475  -9.4333  -8.5374  -8.3475  -6.8129  -6.3568
    -6.2902  -5.5172  -5.2546  -5.2394  -4.6111  -4.4526   2.6154   4.5647
     5.3776   6.3469

     occupation numbers 
     1.0000   1.0000   1.0000   1.0000   1.0000   1.0000   1.0000   1.0000
     1.0000   1.0000   1.0000   1.0000   1.0000   1.0000   1.0000   1.0000
     1.0000   1.0000   1.0000   1.0000   1.0000   1.0000   0.0000   0.0000
     0.0000   0.0000

          k = 0.2857 0.2699 0.0000 (234926 PWs)   bands (ev):

   -27.4017 -27.3247 -26.8530 -26.8005 -16.9548 -16.3522 -12.4714 -11.9283
   -10.7190 -10.5582  -9.4499  -9.3795  -8.3803  -8.3737  -6.5350  -6.3017
    -6.1592  -5.8124  -5.2249  -5.1667  -4.5273  -4.5086   3.2688   4.1171
     5.5109   5.9071

     occupation numbers 
     1.0000   1.0000   1.0000   1.0000   1.0000   1.0000   1.0000   1.0000
     1.0000   1.0000   1.0000   1.0000   1.0000   1.0000   1.0000   1.0000
     1.0000   1.0000   1.0000   1.0000   1.0000   1.0000   0.0000   0.0000
     0.0000   0.0000

          k = 0.4285 0.0000 0.0000 (234889 PWs)   bands (ev):

   -27.2165 -27.0507 -26.8531 -26.7281 -16.5581 -14.9525 -13.4029 -11.9498
   -11.2597 -10.4637  -9.6441  -9.4845  -9.2810  -8.5150  -7.1779  -6.8443
    -6.3800  -6.1938  -6.1388  -5.4331  -4.8764  -4.7754   3.2015   4.5965
     4.6388   6.0869

     occupation numbers 
     1.0000   1.0000   1.0000   1.0000   1.0000   1.0000   1.0000   1.0000
     1.0000   1.0000   1.0000   1.0000   1.0000   1.0000   1.0000   1.0000
     1.0000   1.0000   1.0000   1.0000   1.0000   1.0000   0.0000   0.0000
     0.0000   0.0000

          k = 0.4285 0.0900 0.0000 (234845 PWs)   bands (ev):

   -27.1997 -27.0417 -26.8606 -26.7396 -16.4738 -14.9124 -13.6936 -12.2782
   -11.0644 -10.3796  -9.7343  -9.6562  -8.9511  -8.5550  -6.9727  -6.6447
    -6.5373  -6.4250  -5.8039  -5.5476  -4.7915  -4.6729   3.2814   4.6254
     4.6739   5.8243

     occupation numbers 
     1.0000   1.0000   1.0000   1.0000   1.0000   1.0000   1.0000   1.0000
     1.0000   1.0000   1.0000   1.0000   1.0000   1.0000   1.0000   1.0000
     1.0000   1.0000   1.0000   1.0000   1.0000   1.0000   0.0000   0.0000
     0.0000   0.0000

          k = 0.4285 0.1799 0.0000 (234812 PWs)   bands (ev):

   -27.1541 -27.0269 -26.8732 -26.7718 -16.2246 -14.9182 -14.1182 -12.9160
   -10.7817 -10.3992  -9.8897  -9.7662  -8.5575  -8.4564  -6.8113  -6.6075
    -6.5338  -6.1771  -5.6056  -5.5407  -4.6492  -4.6143   3.5424   4.5663
     4.9199   5.4477

     occupation numbers 
     1.0000   1.0000   1.0000   1.0000   1.0000   1.0000   1.0000   1.0000
     1.0000   1.0000   1.0000   1.0000   1.0000   1.0000   1.0000   1.0000
     1.0000   1.0000   1.0000   1.0000   1.0000   1.0000   0.0000   0.0000
     0.0000   0.0000

          k = 0.4285 0.2699 0.0000 (234805 PWs)   bands (ev):

   -27.0939 -27.0420 -26.8602 -26.8175 -15.8241 -15.3177 -14.0073 -13.5382
   -10.6183 -10.5161  -9.9257  -9.8936  -8.3155  -8.2973  -6.9092  -6.8226
    -6.0429  -5.7444  -5.6419  -5.4718  -4.6463  -4.6168   3.9659   4.3548
     5.2234   5.2773

     occupation numbers 
     1.0000   1.0000   1.0000   1.0000   1.0000   1.0000   1.0000   1.0000
     1.0000   1.0000   1.0000   1.0000   1.0000   1.0000   1.0000   1.0000
     1.0000   1.0000   1.0000   1.0000   1.0000   1.0000   0.0000   0.0000
     0.0000   0.0000

     the Fermi energy is    -0.6323 ev

!    total energy              =    -240.24700137 Ry
     estimated scf accuracy    <          1.0E-10 Ry
     smearing contrib. (-TS)   =      -0.00000000 Ry
     internal energy E=F+TS    =    -240.24700137 Ry

     The total energy is F=E-TS. E is the sum of the following terms:
     one-electron contribution =   -1260.67518580 Ry
     hartree contribution      =     644.15619594 Ry
     xc contribution           =     -51.70285410 Ry
     ewald contribution        =     427.97484259 Ry

     convergence has been achieved in   7 iterations

     negative rho (up, down):  2.250E-06 0.000E+00

     Forces acting on atoms (cartesian axes, Ry/au):

     atom    1 type  1   force =     0.00000000    0.00100132   -0.00229730
     atom    2 type  1   force =    -0.00000000    0.00100132    0.00229730
     atom    3 type  1   force =    -0.00000000   -0.00100132   -0.00229730
     atom    4 type  1   force =     0.00000000   -0.00100132    0.00229730
     atom    5 type  2   force =     0.00000000   -0.00421721   -0.00130329
     atom    6 type  2   force =     0.00000000   -0.00421721    0.00130329
     atom    7 type  2   force =    -0.00000000    0.00421721   -0.00130329
     atom    8 type  2   force =    -0.00000000    0.00421721    0.00130329
     The non-local contrib.  to forces
     atom    1 type  1   force =     0.00000000   -0.16533684    0.36570194
     atom    2 type  1   force =     0.00000000   -0.16533684   -0.36570194
     atom    3 type  1   force =     0.00000000    0.16533684    0.36570194
     atom    4 type  1   force =    -0.00000000    0.16533684   -0.36570194
     atom    5 type  2   force =    -0.00000000   -0.99891259    2.27832906
     atom    6 type  2   force =     0.00000000   -0.99891259   -2.27832906
     atom    7 type  2   force =     0.00000000    0.99891259    2.27832906
     atom    8 type  2   force =    -0.00000000    0.99891259   -2.27832906
     The ionic contribution  to forces
     atom    1 type  1   force =    -0.00000000    0.95592870    2.83736876
     atom    2 type  1   force =    -0.00000000    0.95592870   -2.83736876
     atom    3 type  1   force =    -0.00000000   -0.95592870    2.83736876
     atom    4 type  1   force =     0.00000000   -0.95592870   -2.83736876
     atom    5 type  2   force =    -0.00000000    4.06893842  -44.64064934
     atom    6 type  2   force =    -0.00000000    4.06893842   44.64064934
     atom    7 type  2   force =    -0.00000000   -4.06893842  -44.64064934
     atom    8 type  2   force =    -0.00000000   -4.06893842   44.64064934
     The local contribution  to forces
     atom    1 type  1   force =    -0.00000000   -0.79059327   -3.20270579
     atom    2 type  1   force =    -0.00000000   -0.79059327    3.20270579
     atom    3 type  1   force =     0.00000000    0.79059327   -3.20270579
     atom    4 type  1   force =     0.00000000    0.79059327    3.20270579
     atom    5 type  2   force =     0.00000000   -3.07424957   42.36104406
     atom    6 type  2   force =     0.00000000   -3.07424957  -42.36104406
     atom    7 type  2   force =     0.00000000    3.07424957   42.36104406
     atom    8 type  2   force =     0.00000000    3.07424957  -42.36104406
     The core correction contribution to forces
     atom    1 type  1   force =     0.00000000    0.00100230   -0.00266214
     atom    2 type  1   force =     0.00000000    0.00100230    0.00266214
     atom    3 type  1   force =    -0.00000000   -0.00100230   -0.00266214
     atom    4 type  1   force =    -0.00000000   -0.00100230    0.00266214
     atom    5 type  2   force =     0.00000000    0.00000000    0.00000000
     atom    6 type  2   force =     0.00000000    0.00000000    0.00000000
     atom    7 type  2   force =     0.00000000    0.00000000    0.00000000
     atom    8 type  2   force =     0.00000000    0.00000000    0.00000000
     The Hubbard contrib.    to forces
     atom    1 type  1   force =     0.00000000    0.00000000    0.00000000
     atom    2 type  1   force =     0.00000000    0.00000000    0.00000000
     atom    3 type  1   force =     0.00000000    0.00000000    0.00000000
     atom    4 type  1   force =     0.00000000    0.00000000    0.00000000
     atom    5 type  2   force =     0.00000000    0.00000000    0.00000000
     atom    6 type  2   force =     0.00000000    0.00000000    0.00000000
     atom    7 type  2   force =     0.00000000    0.00000000    0.00000000
     atom    8 type  2   force =     0.00000000    0.00000000    0.00000000
     The SCF correction term to forces
[...]
     1.0000   1.0000   1.0000   1.0000   1.0000   1.0000   1.0000   1.0000
     1.0000   1.0000   1.0000   1.0000   1.0000   1.0000   0.0000   0.0000
     0.0000   0.0000

          k = 0.0000 0.1791 0.0000 (236299 PWs)   bands (ev):

   -28.0008 -27.7837 -26.8454 -26.7294 -18.4131 -16.5838 -12.7215 -11.1128
    -9.9679  -9.7229  -8.4047  -8.3899  -8.2380  -7.4601  -7.0172  -5.8338
    -5.6652  -5.4973  -4.8453  -4.2945  -3.8076  -3.0216   1.6424   3.2984
     3.4393   4.5430

     occupation numbers 
     1.0000   1.0000   1.0000   1.0000   1.0000   1.0000   1.0000   1.0000
     1.0000   1.0000   1.0000   1.0000   1.0000   1.0000   1.0000   1.0000
     1.0000   1.0000   1.0000   1.0000   1.0000   1.0000   0.0000   0.0000
     0.0000   0.0000

          k = 0.0000 0.2687 0.0000 (236216 PWs)   bands (ev):

   -27.8327 -27.7381 -26.9491 -26.8904 -17.9362 -17.3079 -12.0926 -11.5073
    -9.5598  -9.2878  -8.7359  -8.6412  -8.0583  -7.7111  -6.5627  -6.1956
    -5.7221  -5.6449  -4.8282  -4.5620  -3.5669  -3.2923   2.3824   3.0055
     3.6524   4.0162

     occupation numbers 
     1.0000   1.0000   1.0000   1.0000   1.0000   1.0000   1.0000   1.0000
     1.0000   1.0000   1.0000   1.0000   1.0000   1.0000   1.0000   1.0000
     1.0000   1.0000   1.0000   1.0000   1.0000   1.0000   0.0000   0.0000
     0.0000   0.0000

          k = 0.1428 0.0000 0.0000 (236271 PWs)   bands (ev):

   -28.0459 -27.7812 -26.6478 -26.5334 -18.5558 -15.2937 -13.4902 -10.9215
   -10.2269 -10.0256  -9.7635  -8.4606  -8.0490  -7.6404  -7.4006  -5.9200
    -5.7561  -5.3778  -4.7996  -4.5067  -4.1831  -3.5488   1.2020   3.9566
     4.5824   5.0232

     occupation numbers 
     1.0000   1.0000   1.0000   1.0000   1.0000   1.0000   1.0000   1.0000
     1.0000   1.0000   1.0000   1.0000   1.0000   1.0000   1.0000   1.0000
     1.0000   1.0000   1.0000   1.0000   1.0000   1.0000   0.0000   0.0000
     0.0000   0.0000

          k = 0.1428 0.0896 0.0000 (236313 PWs)   bands (ev):

   -28.0003 -27.7486 -26.6991 -26.5827 -18.4570 -15.6518 -13.1994 -10.9019
   -10.1324 -10.0798  -9.6141  -8.5376  -8.0486  -7.7966  -7.2655  -5.9887
    -5.7862  -5.3573  -4.7841  -4.4899  -4.2340  -3.6560   1.3897   4.2284
     4.5658   5.0375

     occupation numbers 
     1.0000   1.0000   1.0000   1.0000   1.0000   1.0000   1.0000   1.0000
     1.0000   1.0000   1.0000   1.0000   1.0000   1.0000   1.0000   1.0000
     1.0000   1.0000   1.0000   1.0000   1.0000   1.0000   0.0000   0.0000
     0.0000   0.0000

          k = 0.1428 0.1791 0.0000 (236273 PWs)   bands (ev):

   -27.8761 -27.6720 -26.8217 -26.7109 -18.1653 -16.3536 -12.6436 -11.0290
   -10.0533  -9.9398  -9.2139  -8.7396  -8.1583  -8.0691  -6.9212  -6.0239
    -5.8286  -5.5267  -4.8331  -4.4111  -4.3584  -3.8292   1.9054   4.2547
     4.8912   5.0686

     occupation numbers 
     1.0000   1.0000   1.0000   1.0000   1.0000   1.0000   1.0000   1.0000
     1.0000   1.0000   1.0000   1.0000   1.0000   1.0000   1.0000   1.0000
     1.0000   1.0000   1.0000   1.0000   1.0000   1.0000   0.0000   0.0000
     0.0000   0.0000

          k = 0.1428 0.2687 0.0000 (236266 PWs)   bands (ev):

   -27.7198 -27.6310 -26.9127 -26.8571 -17.6949 -17.0736 -12.0437 -11.4666
    -9.8185  -9.7614  -8.9419  -8.9397  -8.3692  -8.1785  -6.4734  -6.0513
    -5.8461  -5.8423  -4.8677  -4.6955  -4.1469  -3.9624   2.6467   3.5033
     5.0481   5.0807

     occupation numbers 
     1.0000   1.0000   1.0000   1.0000   1.0000   1.0000   1.0000   1.0000
     1.0000   1.0000   1.0000   1.0000   1.0000   1.0000   1.0000   1.0000
     1.0000   1.0000   1.0000   1.0000   1.0000   1.0000   0.0000   0.0000
     0.0000   0.0000

          k = 0.2855 0.0000 0.0000 (236201 PWs)   bands (ev):

   -27.6835 -27.4628 -26.6892 -26.5777 -17.8039 -14.5748 -13.6136 -11.3189
   -10.5498 -10.4106  -9.9337  -9.1822  -9.1317  -7.9188  -7.0442  -6.5109
    -6.3474  -5.9882  -5.6238  -4.7702  -4.7030  -4.4336   2.0554   3.8818
     5.8538   6.7005

     occupation numbers 
     1.0000   1.0000   1.0000   1.0000   1.0000   1.0000   1.0000   1.0000
     1.0000   1.0000   1.0000   1.0000   1.0000   1.0000   1.0000   1.0000
     1.0000   1.0000   1.0000   1.0000   1.0000   1.0000   0.0000   0.0000
     0.0000   0.0000

          k = 0.2855 0.0896 0.0000 (236173 PWs)   bands (ev):

   -27.6484 -27.4388 -26.7221 -26.6109 -17.7101 -14.9765 -13.3560 -11.2124
   -10.8142 -10.4108  -9.7804  -9.3704  -8.8426  -8.0902  -6.9827  -6.4799
    -6.3420  -5.8018  -5.4907  -4.9401  -4.7405  -4.4128   2.1756   4.0934
     5.7173   6.5619

     occupation numbers 
     1.0000   1.0000   1.0000   1.0000   1.0000   1.0000   1.0000   1.0000
     1.0000   1.0000   1.0000   1.0000   1.0000   1.0000   1.0000   1.0000
     1.0000   1.0000   1.0000   1.0000   1.0000   1.0000   0.0000   0.0000
     0.0000   0.0000

          k = 0.2855 0.1791 0.0000 (236240 PWs)   bands (ev):

   -27.5534 -27.3836 -26.8002 -26.6988 -17.4327 -15.6848 -12.9523 -11.3562
   -10.9842 -10.4777  -9.4781  -9.4639  -8.5571  -8.3581  -6.8189  -6.3812
    -6.2745  -5.5477  -5.3116  -5.2639  -4.6693  -4.4956   2.5491   4.5214
     5.2557   6.3148

     occupation numbers 
     1.0000   1.0000   1.0000   1.0000   1.0000   1.0000   1.0000   1.0000
     1.0000   1.0000   1.0000   1.0000   1.0000   1.0000   1.0000   1.0000
     1.0000   1.0000   1.0000   1.0000   1.0000   1.0000   0.0000   0.0000
     0.0000   0.0000

          k = 0.2855 0.2687 0.0000 (236220 PWs)   bands (ev):

   -27.4333 -27.3598 -26.8523 -26.8033 -16.9836 -16.3861 -12.4961 -11.9551
   -10.7536 -10.5822  -9.4711  -9.4003  -8.4005  -8.3976  -6.5484  -6.2993
    -6.1790  -5.8518  -5.2600  -5.1942  -4.5860  -4.5550   3.1877   4.0270
     5.4393   5.8616

     occupation numbers 
     1.0000   1.0000   1.0000   1.0000   1.0000   1.0000   1.0000   1.0000
     1.0000   1.0000   1.0000   1.0000   1.0000   1.0000   1.0000   1.0000
     1.0000   1.0000   1.0000   1.0000   1.0000   1.0000   0.0000   0.0000
     0.0000   0.0000

          k = 0.4283 0.0000 0.0000 (236199 PWs)   bands (ev):

   -27.2346 -27.0684 -26.8714 -26.7458 -16.5825 -14.9844 -13.4427 -11.9973
   -11.3116 -10.5186  -9.6581  -9.4976  -9.2780  -8.5330  -7.1627  -6.8288
    -6.3694  -6.1942  -6.1859  -5.4927  -4.9364  -4.8459   3.1363   4.5194
     4.6241   6.0723

     occupation numbers 
     1.0000   1.0000   1.0000   1.0000   1.0000   1.0000   1.0000   1.0000
     1.0000   1.0000   1.0000   1.0000   1.0000   1.0000   1.0000   1.0000
     1.0000   1.0000   1.0000   1.0000   1.0000   1.0000   0.0000   0.0000
     0.0000   0.0000

          k = 0.4283 0.0896 0.0000 (236153 PWs)   bands (ev):

   -27.2184 -27.0607 -26.8778 -26.7568 -16.4988 -14.9451 -13.7294 -12.3197
   -11.1154 -10.4302  -9.7434  -9.6705  -8.9571  -8.5659  -6.9711  -6.6398
    -6.5551  -6.4185  -5.8308  -5.6011  -4.8522  -4.7386   3.2139   4.5469
     4.6500   5.8052

     occupation numbers 
     1.0000   1.0000   1.0000   1.0000   1.0000   1.0000   1.0000   1.0000
     1.0000   1.0000   1.0000   1.0000   1.0000   1.0000   1.0000   1.0000
     1.0000   1.0000   1.0000   1.0000   1.0000   1.0000   0.0000   0.0000
     0.0000   0.0000

          k = 0.4283 0.1791 0.0000 (236033 PWs)   bands (ev):

   -27.1745 -27.0497 -26.8870 -26.7879 -16.2513 -14.9542 -14.1452 -12.9492
   -10.8254 -10.4280  -9.9110  -9.7776  -8.5713  -8.4683  -6.8339  -6.6171
    -6.5422  -6.1883  -5.6479  -5.5711  -4.7060  -4.6661   3.4683   4.5106
     4.8448   5.4168

     occupation numbers 
     1.0000   1.0000   1.0000   1.0000   1.0000   1.0000   1.0000   1.0000
     1.0000   1.0000   1.0000   1.0000   1.0000   1.0000   1.0000   1.0000
     1.0000   1.0000   1.0000   1.0000   1.0000   1.0000   0.0000   0.0000
     0.0000   0.0000

          k = 0.4283 0.2687 0.0000 (236043 PWs)   bands (ev):

   -27.1167 -27.0667 -26.8723 -26.8315 -15.8536 -15.3513 -14.0326 -13.5662
   -10.6485 -10.5364  -9.9480  -9.9074  -8.3344  -8.3155  -6.9259  -6.8368
    -6.0715  -5.7797  -5.6754  -5.5055  -4.6840  -4.6610   3.8886   4.2910
     5.1297   5.2183

     occupation numbers 
     1.0000   1.0000   1.0000   1.0000   1.0000   1.0000   1.0000   1.0000
     1.0000   1.0000   1.0000   1.0000   1.0000   1.0000   1.0000   1.0000
     1.0000   1.0000   1.0000   1.0000   1.0000   1.0000   0.0000   0.0000
     0.0000   0.0000

     the Fermi energy is    -0.6599 ev

!    total energy              =    -240.24732634 Ry
     estimated scf accuracy    <          5.2E-11 Ry
     smearing contrib. (-TS)   =      -0.00000000 Ry
     internal energy E=F+TS    =    -240.24732634 Ry

     The total energy is F=E-TS. E is the sum of the following terms:
     one-electron contribution =   -1256.48170103 Ry
     hartree contribution      =     642.01106127 Ry
     xc contribution           =     -51.69335920 Ry
     ewald contribution        =     425.91667262 Ry

     convergence has been achieved in   9 iterations

     negative rho (up, down):  2.271E-06 0.000E+00

     Forces acting on atoms (cartesian axes, Ry/au):

     atom    1 type  1   force =     0.00000000    0.00000639   -0.00002209
     atom    2 type  1   force =     0.00000000    0.00000639    0.00002209
     atom    3 type  1   force =     0.00000000   -0.00000639   -0.00002209
     atom    4 type  1   force =     0.00000000   -0.00000639    0.00002209
     atom    5 type  2   force =     0.00000000   -0.00003835   -0.00000375
     atom    6 type  2   force =     0.00000000   -0.00003835    0.00000375
     atom    7 type  2   force =    -0.00000000    0.00003835   -0.00000375
     atom    8 type  2   force =     0.00000000    0.00003835    0.00000375
     The non-local contrib.  to forces
     atom    1 type  1   force =     0.00000000   -0.16201667    0.36783172
     atom    2 type  1   force =    -0.00000000   -0.16201667   -0.36783172
     atom    3 type  1   force =     0.00000000    0.16201667    0.36783172
     atom    4 type  1   force =     0.00000000    0.16201667   -0.36783172
     atom    5 type  2   force =     0.00000000   -0.97072280    2.28337420
     atom    6 type  2   force =     0.00000000   -0.97072280   -2.28337420
     atom    7 type  2   force =     0.00000000    0.97072280    2.28337420
     atom    8 type  2   force =     0.00000000    0.97072280   -2.28337420
     The ionic contribution  to forces
     atom    1 type  1   force =     0.00000000    0.91439882    2.68704709
     atom    2 type  1   force =    -0.00000000    0.91439882   -2.68704709
     atom    3 type  1   force =    -0.00000000   -0.91439882    2.68704709
     atom    4 type  1   force =     0.00000000   -0.91439882   -2.68704709
     atom    5 type  2   force =    -0.00000000    4.28250415  -44.49509369
     atom    6 type  2   force =    -0.00000000    4.28250415   44.49509369
     atom    7 type  2   force =    -0.00000000   -4.28250415  -44.49509369
     atom    8 type  2   force =    -0.00000000   -4.28250415   44.49509369
     The local contribution  to forces
     atom    1 type  1   force =     0.00000000   -0.75334651   -3.05222894
     atom    2 type  1   force =    -0.00000000   -0.75334651    3.05222894
     atom    3 type  1   force =     0.00000000    0.75334651   -3.05222894
     atom    4 type  1   force =     0.00000000    0.75334651    3.05222894
     atom    5 type  2   force =     0.00000000   -3.31181656   42.21171632
     atom    6 type  2   force =     0.00000000   -3.31181656  -42.21171632
     atom    7 type  2   force =    -0.00000000    3.31181656   42.21171632
     atom    8 type  2   force =     0.00000000    3.31181656  -42.21171632
     The core correction contribution to forces
     atom    1 type  1   force =    -0.00000000    0.00097119   -0.00267283
     atom    2 type  1   force =    -0.00000000    0.00097119    0.00267283
     atom    3 type  1   force =     0.00000000   -0.00097119   -0.00267283
     atom    4 type  1   force =     0.00000000   -0.00097119    0.00267283
     atom    5 type  2   force =     0.00000000    0.00000000    0.00000000
     atom    6 type  2   force =     0.00000000    0.00000000    0.00000000
     atom    7 type  2   force =     0.00000000    0.00000000    0.00000000
     atom    8 type  2   force =     0.00000000    0.00000000    0.00000000
     The Hubbard contrib.    to forces
     atom    1 type  1   force =     0.00000000    0.00000000    0.00000000
     atom    2 type  1   force =     0.00000000    0.00000000    0.00000000
     atom    3 type  1   force =     0.00000000    0.00000000    0.00000000
     atom    4 type  1   force =     0.00000000    0.00000000    0.00000000
     atom    5 type  2   force =     0.00000000    0.00000000    0.00000000
     atom    6 type  2   force =     0.00000000    0.00000000    0.00000000
     atom    7 type  2   force =     0.00000000    0.00000000    0.00000000
     atom    8 type  2   force =     0.00000000    0.00000000    0.00000000
     The SCF correction term to forces
     atom    1 type  1   force =    -0.00000000   -0.00000044    0.00000088
     atom    2 type  1   force =    -0.00000000   -0.00000044   -0.00000088
     atom    3 type  1   force =    -0.00000000    0.00000044    0.00000088
     atom    4 type  1   force =    -0.00000000    0.00000044   -0.00000088
     atom    5 type  2   force =    -0.00000000   -0.00000315   -0.00000058
     atom    6 type  2   force =    -0.00000000   -0.00000315    0.00000058
     atom    7 type  2   force =    -0.00000000    0.00000315   -0.00000058
     atom    8 type  2   force =    -0.00000000    0.00000315    0.00000058

     Total force =     0.000090     Total SCF correction =     0.000007


     Computing stress (Cartesian axis) and pressure


     negative rho (up, down):  2.271E-06 0.000E+00
          total   stress  (Ry/bohr**3)                   (kbar)     P=       -0.04
  -0.00000035   0.00000000   0.00000000           -0.05        0.00        0.00
   0.00000000  -0.00000031   0.00000000            0.00       -0.05        0.00
   0.00000000   0.00000000  -0.00000007            0.00        0.00       -0.01

     kinetic stress (kbar)   9135.70      0.00      0.00
                                0.00   8958.44      0.00
                                0.00      0.00   8301.43

     local   stress (kbar)-161108.20     -0.00      0.00
                               -0.00-162214.14      0.00
                                0.00      0.00 155410.83

     nonloc. stress (kbar)   1180.28      0.00      0.00
                                0.00   1137.46      0.00
                                0.00      0.00    963.81

     hartree stress (kbar)  80821.27     -0.00      0.00
                               -0.00  81109.44     -0.00
                                0.00     -0.00 -74841.75

     exc-cor stress (kbar)  -2141.78      0.00      0.00
                                0.00  -2137.82      0.00
                                0.00      0.00  -2131.15

     corecor stress (kbar)    -73.64      0.00      0.00
                                0.00    -73.49      0.00
                                0.00      0.00    -72.52

     ewald   stress (kbar)  72186.31     -0.00     -0.00
                               -0.00  73220.06     -0.00
                               -0.00     -0.00 -87630.66

     hubbard stress (kbar)      0.00      0.00      0.00
                                0.00      0.00      0.00
                                0.00      0.00      0.00

     DFT-D   stress (kbar)      0.00      0.00      0.00
                                0.00      0.00      0.00
                                0.00      0.00      0.00

     XDM     stress (kbar)      0.00      0.00      0.00
                                0.00      0.00      0.00
                                0.00      0.00      0.00

     dft-nl  stress (kbar)      0.00      0.00      0.00
                                0.00      0.00      0.00
                                0.00      0.00      0.00

     TS-vdW  stress (kbar)      0.00      0.00      0.00
                                0.00      0.00      0.00
                                0.00      0.00      0.00

     MDB     stress (kbar)      0.00      0.00      0.00
                                0.00      0.00      0.00
                                0.00      0.00      0.00

     3D-RISM stress (kbar)      0.00      0.00      0.00
                                0.00      0.00      0.00
                                0.00      0.00      0.00


     Writing all to output data dir ../tmp/fgz.save/

     init_run     :     56.95s CPU    103.35s WALL (       2 calls)
     electrons    :  10604.10s CPU  19702.33s WALL (      11 calls)
     update_pot   :      8.97s CPU      8.99s WALL (       9 calls)
     forces       :    351.88s CPU    655.91s WALL (      11 calls)
     stress       :    153.88s CPU    314.28s WALL (      11 calls)

     Called by init_run:
     wfcinit      :     54.04s CPU     99.79s WALL (       2 calls)
     wfcinit:atom :      0.03s CPU      0.02s WALL (      32 calls)
     wfcinit:wfcr :     53.43s CPU     98.61s WALL (      32 calls)
     potinit      :      0.50s CPU      0.51s WALL (       2 calls)
     hinit0       :      0.94s CPU      0.98s WALL (       2 calls)

     Called by electrons:
     c_bands      :  10228.74s CPU  18820.22s WALL (      91 calls)
     sum_band     :    353.00s CPU    833.75s WALL (      91 calls)
     v_of_rho     :      2.75s CPU      3.17s WALL (      97 calls)
     v_h          :      0.21s CPU      0.25s WALL (      97 calls)
     v_xc         :      3.10s CPU      3.52s WALL (     119 calls)
     newd         :     16.41s CPU     38.49s WALL (      97 calls)
     mix_rho      :      1.59s CPU      2.05s WALL (      91 calls)

     Called by c_bands:
     init_us_2    :      2.02s CPU      4.21s WALL (    3296 calls)
     init_us_2:cp :      2.00s CPU      4.18s WALL (    3296 calls)
     cegterg      :   9740.34s CPU  17816.70s WALL (    1456 calls)

     Called by sum_band:
     sum_band:wei :      0.00s CPU      0.00s WALL (      91 calls)
     sum_band:loo :    328.39s CPU    773.90s WALL (      91 calls)
     sum_band:buf :      0.27s CPU      0.57s WALL (    1456 calls)
     sum_band:ini :      0.69s CPU      1.38s WALL (    1456 calls)
     sum_band:cal :    290.61s CPU    726.06s WALL (    1456 calls)
     sum_band:bec :      0.01s CPU      0.03s WALL (    1456 calls)
     addusdens    :      9.80s CPU     40.47s WALL (      91 calls)
     addusd:skk   :      0.16s CPU      0.76s WALL (     182 calls)
     addusd:dgemm :      6.66s CPU     30.55s WALL (     182 calls)
     addusd:qvan2 :      2.73s CPU      8.78s WALL (     182 calls)

     Called by *egterg:
     cdiaghg      :    909.93s CPU    936.39s WALL (    5817 calls)
     cegterg:over :   3333.57s CPU   5405.98s WALL (    4585 calls)
     cegterg:upda :    218.30s CPU    441.41s WALL (    4585 calls)
     cegterg:last :    247.80s CPU    505.80s WALL (    3210 calls)
     h_psi        :   2220.09s CPU   5489.49s WALL (    6073 calls)
     s_psi        :     71.79s CPU    193.14s WALL (    6073 calls)
     g_psi        :      1.01s CPU      0.67s WALL (    4585 calls)

     Called by h_psi:
     h_psi:calbec :   1417.72s CPU   3533.80s WALL (    6073 calls)
     vloc_psi     :    422.08s CPU    510.45s WALL (    6073 calls)
     add_vuspsi   :    379.49s CPU   1441.41s WALL (    6073 calls)

     General routines
     calbec       :   2149.45s CPU   5073.30s WALL (    8409 calls)
     fft          :      6.35s CPU      7.01s WALL (    1356 calls)
     ffts         :      0.70s CPU      0.82s WALL (      91 calls)
     fftw         :    449.00s CPU    532.70s WALL (  247620 calls)

     Parallel routines

     PWSCF        :      3h 6m CPU      5h46m WALL


   This run was terminated on:  14:44:12  19Jan2024            

=------------------------------------------------------------------------------=
   JOB DONE.
=------------------------------------------------------------------------------=
