
     Program BANDS v.7.1 starts on 24Feb2024 at 17:36:48 

     This program is part of the open-source Quantum ESPRESSO suite
     for quantum simulation of materials; please cite
         "P. Giannozzi et al., J. Phys.:Condens. Matter 21 395502 (2009);
         "P. Giannozzi et al., J. Phys.:Condens. Matter 29 465901 (2017);
         "P. Giannozzi et al., J. Chem. Phys. 152 154105 (2020);
          URL http://www.quantum-espresso.org", 
     in publications or presentations arising from this work. More details at
     http://www.quantum-espresso.org/quote

     Parallel version (MPI), running on     8 processors

     MPI processes distributed on     1 nodes
     R & G space division:  proc/nbgrp/npool/nimage =       8
     238670 MiB available memory on the printing compute node when the environment starts


     Reading xml data from directory:

     ../tmp/fgc.save/

     IMPORTANT: XC functional enforced from input :
     Exchange-correlation= PBE
                           (   1   4   3   4   0   0   0)
     Any further DFT definition will be discarded
     Please, verify this is what you really want


     Parallelization info
     --------------------
     sticks:   dense  smooth     PW     G-vecs:    dense   smooth      PW
     Min         416     416    114               138498   138498   19368
     Max         417     417    115               138521   138521   19383
     Sum        3331    3331    913              1108055  1108055  154987

     Using Slab Decomposition


     negative rho (up, down):  5.457E-06 0.000E+00
     Reading collected, re-writing distributed wavefunctions
     high-symmetry point:  0.0000 0.0000 0.0000   x coordinate   0.0000
     high-symmetry point:  0.3333 0.5774 0.0000   x coordinate   0.6667
     high-symmetry point:  0.5000 0.2887 0.0000   x coordinate   1.0000
     high-symmetry point:  0.0000 0.0000 0.0000   x coordinate   1.5774

     Plottable bands (eV) written to file band.dat.gnu
     Bands written to file band.dat

 **************************************************************************

                    xk=(   0.00000,   0.00000,   0.00000  )

     point group D_3d (-3m) 
     there are  6 classes
     the character table:

       E     2C3   3C2'  i     2S6   3s_d 
A_1g   1.00  1.00  1.00  1.00  1.00  1.00
A_2g   1.00  1.00 -1.00  1.00  1.00 -1.00
E_g    2.00 -1.00  0.00  2.00 -1.00  0.00
A_1u   1.00  1.00  1.00 -1.00 -1.00 -1.00
A_2u   1.00  1.00 -1.00 -1.00 -1.00  1.00
E_u    2.00 -1.00  0.00 -2.00  1.00  0.00

     the symmetry operations in each class and the name of the first element:

     E        1
                                                                 
     2C3      3    4
                                                                 
     3C2'     2    5    6
                                                                 
     i        7
                                                                 
     2S6      9   10
                                                                 
     3s_d     8   11   12
                                                                 

     Band symmetry, D_3d (-3m)  point group:

     e(  1 -  1) =    -29.39851  eV     1   --> A_1g L_1       
     e(  2 -  2) =    -28.90311  eV     1   --> A_2u L_2'      
     e(  3 -  3) =    -20.18573  eV     1   --> A_1g L_1       
     e(  4 -  4) =    -12.82449  eV     1   --> A_2u L_2'      
     e(  5 -  5) =     -9.84375  eV     1   --> A_1g L_1       
     e(  6 -  7) =     -8.10014  eV     2   --> E_g  L_3       
     e(  8 -  9) =     -6.92356  eV     2   --> E_u  L_3'      
     e( 10 - 11) =     -3.95246  eV     2   --> E_g  L_3       
     e( 12 - 12) =     -0.80955  eV     1   --> A_2u L_2'      
     e( 13 - 14) =      3.40767  eV     2   --> E_u  L_3'      
     e( 15 - 15) =      3.59065  eV     1   --> A_1g L_1       

 **************************************************************************

 **************************************************************************

                    xk=(   0.00476,   0.00825,   0.00000  )

     point group C_2  (2)   
     there are  2 classes
     the character table:

       E     C2   
A      1.00  1.00
B      1.00 -1.00

     the symmetry operations in each class and the name of the first element:

     E        1
                                                                 
     C2       2
                                                                 

     Band symmetry, C_2  (2)    point group:

     e(  1 -  1) =    -29.39791  eV     1   --> A              
     e(  2 -  2) =    -28.90268  eV     1   --> B              
     e(  3 -  3) =    -20.18468  eV     1   --> A              
     e(  4 -  4) =    -12.82392  eV     1   --> B              
     e(  5 -  5) =     -9.84423  eV     1   --> A              
     e(  6 -  6) =     -8.10497  eV     1   --> B              
     e(  7 -  7) =     -8.10168  eV     1   --> A              
     e(  8 -  8) =     -6.92476  eV     1   --> A              
     e(  9 -  9) =     -6.92380  eV     1   --> B              
     e( 10 - 10) =     -3.95746  eV     1   --> B              
     e( 11 - 11) =     -3.95418  eV     1   --> A              
     e( 12 - 12) =     -0.80537  eV     1   --> B              
     e( 13 - 13) =      3.40817  eV     1   --> A              
     e( 14 - 14) =      3.41235  eV     1   --> B              
     e( 15 - 15) =      3.59297  eV     1   --> A              

 **************************************************************************

 **************************************************************************

                    xk=(   0.00952,   0.01650,   0.00000  )

     Band symmetry, C_2  (2)    point group:

     e(  1 -  1) =    -29.39611  eV     1   --> A              
     e(  2 -  2) =    -28.90138  eV     1   --> B              
     e(  3 -  3) =    -20.18155  eV     1   --> A              
     e(  4 -  4) =    -12.82221  eV     1   --> B              
     e(  5 -  5) =     -9.84568  eV     1   --> A              
     e(  6 -  6) =     -8.11942  eV     1   --> B              
     e(  7 -  7) =     -8.10631  eV     1   --> A              
     e(  8 -  8) =     -6.92835  eV     1   --> A              
     e(  9 -  9) =     -6.92454  eV     1   --> B              
     e( 10 - 10) =     -3.97239  eV     1   --> B              
     e( 11 - 11) =     -3.95933  eV     1   --> A              
     e( 12 - 12) =     -0.79294  eV     1   --> B              
     e( 13 - 13) =      3.40973  eV     1   --> A              
     e( 14 - 14) =      3.42633  eV     1   --> B              
     e( 15 - 15) =      3.59990  eV     1   --> A              

 **************************************************************************

 **************************************************************************

                    xk=(   0.01429,   0.02474,   0.00000  )

     Band symmetry, C_2  (2)    point group:

     e(  1 -  1) =    -29.39312  eV     1   --> A              
     e(  2 -  2) =    -28.89923  eV     1   --> B              
     e(  3 -  3) =    -20.17632  eV     1   --> A              
     e(  4 -  4) =    -12.81937  eV     1   --> B              
     e(  5 -  5) =     -9.84809  eV     1   --> A              
     e(  6 -  6) =     -8.14336  eV     1   --> B              
     e(  7 -  7) =     -8.11403  eV     1   --> A              
     e(  8 -  8) =     -6.93429  eV     1   --> A              
     e(  9 -  9) =     -6.92581  eV     1   --> B              
     e( 10 - 10) =     -3.99692  eV     1   --> B              
     e( 11 - 11) =     -3.96791  eV     1   --> A              
     e( 12 - 12) =     -0.77252  eV     1   --> B              
     e( 13 - 13) =      3.41247  eV     1   --> A              
     e( 14 - 14) =      3.44937  eV     1   --> B              
     e( 15 - 15) =      3.61132  eV     1   --> A              

 **************************************************************************

 **************************************************************************

                    xk=(   0.01905,   0.03299,   0.00000  )

     Band symmetry, C_2  (2)    point group:

     e(  1 -  1) =    -29.38893  eV     1   --> A              
     e(  2 -  2) =    -28.89623  eV     1   --> B              
     e(  3 -  3) =    -20.16899  eV     1   --> A              
     e(  4 -  4) =    -12.81541  eV     1   --> B              
     e(  5 -  5) =     -9.85149  eV     1   --> A              
     e(  6 -  6) =     -8.17657  eV     1   --> B              
     e(  7 -  7) =     -8.12485  eV     1   --> A              
     e(  8 -  8) =     -6.94251  eV     1   --> A              
     e(  9 -  9) =     -6.92768  eV     1   --> B              
     e( 10 - 10) =     -4.03058  eV     1   --> B              
     e( 11 - 11) =     -3.97988  eV     1   --> A              
     e( 12 - 12) =     -0.74452  eV     1   --> B              
     e( 13 - 13) =      3.41656  eV     1   --> A              
     e( 14 - 14) =      3.48107  eV     1   --> B              
     e( 15 - 15) =      3.62709  eV     1   --> A              

 **************************************************************************

 **************************************************************************

                    xk=(   0.02381,   0.04124,   0.00000  )

     Band symmetry, C_2  (2)    point group:

     e(  1 -  1) =    -29.38356  eV     1   --> A              
     e(  2 -  2) =    -28.89238  eV     1   --> B              
     e(  3 -  3) =    -20.15958  eV     1   --> A              
     e(  4 -  4) =    -12.81033  eV     1   --> B              
     e(  5 -  5) =     -9.85589  eV     1   --> A              
     e(  6 -  6) =     -8.21877  eV     1   --> B              
     e(  7 -  7) =     -8.13878  eV     1   --> A              
     e(  8 -  8) =     -6.95292  eV     1   --> A              
     e(  9 -  9) =     -6.93022  eV     1   --> B              
     e( 10 - 10) =     -4.07276  eV     1   --> B              
     e( 11 - 11) =     -3.99519  eV     1   --> A              
     e( 12 - 12) =     -0.70949  eV     1   --> B              
     e( 13 - 13) =      3.42223  eV     1   --> A              
     e( 14 - 14) =      3.52087  eV     1   --> B              
     e( 15 - 15) =      3.64704  eV     1   --> A              

 **************************************************************************

 **************************************************************************

                    xk=(   0.02857,   0.04949,   0.00000  )

     Band symmetry, C_2  (2)    point group:

     e(  1 -  1) =    -29.37702  eV     1   --> A              
     e(  2 -  2) =    -28.88769  eV     1   --> B              
     e(  3 -  3) =    -20.14808  eV     1   --> A              
     e(  4 -  4) =    -12.80416  eV     1   --> B              
     e(  5 -  5) =     -9.86131  eV     1   --> A              
     e(  6 -  6) =     -8.26962  eV     1   --> B              
     e(  7 -  7) =     -8.15583  eV     1   --> A              
     e(  8 -  8) =     -6.96544  eV     1   --> A              
     e(  9 -  9) =     -6.93353  eV     1   --> B              
     e( 10 - 10) =     -4.12273  eV     1   --> B              
     e( 11 - 11) =     -4.01380  eV     1   --> A              
     e( 12 - 12) =     -0.66804  eV     1   --> B              
     e( 13 - 13) =      3.42966  eV     1   --> A              
     e( 14 - 14) =      3.56799  eV     1   --> B              
     e( 15 - 15) =      3.67102  eV     1   --> A              

 **************************************************************************

 **************************************************************************

                    xk=(   0.03333,   0.05774,   0.00000  )

     Band symmetry, C_2  (2)    point group:

     e(  1 -  1) =    -29.36931  eV     1   --> A              
     e(  2 -  2) =    -28.88218  eV     1   --> B              
     e(  3 -  3) =    -20.13448  eV     1   --> A              
     e(  4 -  4) =    -12.79691  eV     1   --> B              
     e(  5 -  5) =     -9.86778  eV     1   --> A              
     e(  6 -  6) =     -8.32871  eV     1   --> B              
     e(  7 -  7) =     -8.17601  eV     1   --> A              
     e(  8 -  8) =     -6.97991  eV     1   --> A              
     e(  9 -  9) =     -6.93769  eV     1   --> B              
     e( 10 - 10) =     -4.17973  eV     1   --> B              
     e( 11 - 11) =     -4.03564  eV     1   --> A              
     e( 12 - 12) =     -0.62081  eV     1   --> B              
     e( 13 - 13) =      3.43905  eV     1   --> A              
     e( 14 - 14) =      3.62146  eV     1   --> B              
     e( 15 - 15) =      3.69890  eV     1   --> A              

 **************************************************************************

 **************************************************************************

                    xk=(   0.03810,   0.06598,   0.00000  )

     Band symmetry, C_2  (2)    point group:

     e(  1 -  1) =    -29.36047  eV     1   --> A              
     e(  2 -  2) =    -28.87585  eV     1   --> B              
     e(  3 -  3) =    -20.11880  eV     1   --> A              
     e(  4 -  4) =    -12.78860  eV     1   --> B              
     e(  5 -  5) =     -9.87534  eV     1   --> A              
     e(  6 -  6) =     -8.39564  eV     1   --> B              
     e(  7 -  7) =     -8.19933  eV     1   --> A              
     e(  8 -  8) =     -6.99622  eV     1   --> A              
     e(  9 -  9) =     -6.94279  eV     1   --> B              
     e( 10 - 10) =     -4.24297  eV     1   --> B              
     e( 11 - 11) =     -4.06064  eV     1   --> A              
     e( 12 - 12) =     -0.56843  eV     1   --> B              
     e( 13 - 13) =      3.45056  eV     1   --> A              
     e( 14 - 14) =      3.68006  eV     1   --> B              
     e( 15 - 15) =      3.73059  eV     1   --> A              

 **************************************************************************

 **************************************************************************

                    xk=(   0.04286,   0.07423,   0.00000  )

     Band symmetry, C_2  (2)    point group:

     e(  1 -  1) =    -29.35049  eV     1   --> A              
     e(  2 -  2) =    -28.86872  eV     1   --> B              
     e(  3 -  3) =    -20.10103  eV     1   --> A              
     e(  4 -  4) =    -12.77927  eV     1   --> B              
     e(  5 -  5) =     -9.88402  eV     1   --> A              
     e(  6 -  6) =     -8.46993  eV     1   --> B              
     e(  7 -  7) =     -8.22577  eV     1   --> A              
     e(  8 -  8) =     -7.01421  eV     1   --> A              
     e(  9 -  9) =     -6.94893  eV     1   --> B              
     e( 10 - 10) =     -4.31167  eV     1   --> B              
     e( 11 - 11) =     -4.08870  eV     1   --> A              
     e( 12 - 12) =     -0.51154  eV     1   --> B              
     e( 13 - 13) =      3.46433  eV     1   --> A              
     e( 14 - 14) =      3.74233  eV     1   --> B              
     e( 15 - 15) =      3.76601  eV     1   --> A              

 **************************************************************************

 **************************************************************************

                    xk=(   0.04762,   0.08248,   0.00000  )

     Band symmetry, C_2  (2)    point group:

     e(  1 -  1) =    -29.33940  eV     1   --> A              
     e(  2 -  2) =    -28.86080  eV     1   --> B              
     e(  3 -  3) =    -20.08118  eV     1   --> A              
     e(  4 -  4) =    -12.76895  eV     1   --> B              
     e(  5 -  5) =     -9.89386  eV     1   --> A              
     e(  6 -  6) =     -8.55111  eV     1   --> B              
     e(  7 -  7) =     -8.25534  eV     1   --> A              
     e(  8 -  8) =     -7.03373  eV     1   --> A              
     e(  9 -  9) =     -6.95618  eV     1   --> B              
     e( 10 - 10) =     -4.38509  eV     1   --> B              
     e( 11 - 11) =     -4.11972  eV     1   --> A              
     e( 12 - 12) =     -0.45070  eV     1   --> B              
     e( 13 - 13) =      3.48050  eV     1   --> A              
     e( 14 - 14) =      3.80510  eV     1   --> A              
     e( 15 - 15) =      3.80666  eV     1   --> B              

 **************************************************************************

 **************************************************************************

                    xk=(   0.05238,   0.09073,   0.00000  )

     Band symmetry, C_2  (2)    point group:

     e(  1 -  1) =    -29.32723  eV     1   --> A              
     e(  2 -  2) =    -28.85213  eV     1   --> B              
     e(  3 -  3) =    -20.05923  eV     1   --> A              
     e(  4 -  4) =    -12.75766  eV     1   --> B              
     e(  5 -  5) =     -9.90490  eV     1   --> A              
     e(  6 -  6) =     -8.63868  eV     1   --> B              
     e(  7 -  7) =     -8.28800  eV     1   --> A              
     e(  8 -  8) =     -7.05462  eV     1   --> A              
     e(  9 -  9) =     -6.96461  eV     1   --> B              
     e( 10 - 10) =     -4.46250  eV     1   --> B              
     e( 11 - 11) =     -4.15359  eV     1   --> A              
     e( 12 - 12) =     -0.38642  eV     1   --> B              
     e( 13 - 13) =      3.49917  eV     1   --> A              
     e( 14 - 14) =      3.84782  eV     1   --> A              
     e( 15 - 15) =      3.87156  eV     1   --> B              

 **************************************************************************

 **************************************************************************

                    xk=(   0.05714,   0.09897,   0.00000  )

     Band symmetry, C_2  (2)    point group:

     e(  1 -  1) =    -29.31399  eV     1   --> A              
     e(  2 -  2) =    -28.84270  eV     1   --> B              
     e(  3 -  3) =    -20.03521  eV     1   --> A              
     e(  4 -  4) =    -12.74546  eV     1   --> B              
     e(  5 -  5) =     -9.91722  eV     1   --> A              
     e(  6 -  6) =     -8.73216  eV     1   --> B              
     e(  7 -  7) =     -8.32372  eV     1   --> A              
     e(  8 -  8) =     -7.07672  eV     1   --> A              
     e(  9 -  9) =     -6.97430  eV     1   --> B              
     e( 10 - 10) =     -4.54326  eV     1   --> B              
     e( 11 - 11) =     -4.19019  eV     1   --> A              
     e( 12 - 12) =     -0.31918  eV     1   --> B              
     e( 13 - 13) =      3.52044  eV     1   --> A              
     e( 14 - 14) =      3.89415  eV     1   --> A              
     e( 15 - 15) =      3.93598  eV     1   --> B              

 **************************************************************************

 **************************************************************************

                    xk=(   0.06190,   0.10722,   0.00000  )

     Band symmetry, C_2  (2)    point group:

     e(  1 -  1) =    -29.29971  eV     1   --> A              
     e(  2 -  2) =    -28.83256  eV     1   --> B              
     e(  3 -  3) =    -20.00910  eV     1   --> A              
     e(  4 -  4) =    -12.73239  eV     1   --> B              
     e(  5 -  5) =     -9.93084  eV     1   --> A              
     e(  6 -  6) =     -8.83103  eV     1   --> B              
     e(  7 -  7) =     -8.36244  eV     1   --> A              
     e(  8 -  8) =     -7.09988  eV     1   --> A              
     e(  9 -  9) =     -6.98532  eV     1   --> B              
     e( 10 - 10) =     -4.62676  eV     1   --> B              
     e( 11 - 11) =     -4.22938  eV     1   --> A              
     e( 12 - 12) =     -0.24935  eV     1   --> B              
     e( 13 - 13) =      3.54441  eV     1   --> A              
     e( 14 - 14) =      3.94406  eV     1   --> A              
     e( 15 - 15) =      3.99954  eV     1   --> B              

 **************************************************************************

 **************************************************************************

                    xk=(   0.06667,   0.11547,   0.00000  )

     Band symmetry, C_2  (2)    point group:

     e(  1 -  1) =    -29.28442  eV     1   --> A              
     e(  2 -  2) =    -28.82171  eV     1   --> B              
     e(  3 -  3) =    -19.98091  eV     1   --> A              
     e(  4 -  4) =    -12.71850  eV     1   --> B              
     e(  5 -  5) =     -9.94585  eV     1   --> A              
     e(  6 -  6) =     -8.93480  eV     1   --> B              
     e(  7 -  7) =     -8.40410  eV     1   --> A              
     e(  8 -  8) =     -7.12394  eV     1   --> A              
     e(  9 -  9) =     -6.99773  eV     1   --> B              
     e( 10 - 10) =     -4.71243  eV     1   --> B              
     e( 11 - 11) =     -4.27101  eV     1   --> A              
     e( 12 - 12) =     -0.17728  eV     1   --> B              
     e( 13 - 13) =      3.57115  eV     1   --> A              
     e( 14 - 14) =      3.99755  eV     1   --> A              
     e( 15 - 15) =      4.06254  eV     1   --> B              

 **************************************************************************

 **************************************************************************

                    xk=(   0.07143,   0.12372,   0.00000  )

     Band symmetry, C_2  (2)    point group:

     e(  1 -  1) =    -29.26815  eV     1   --> A              
     e(  2 -  2) =    -28.81020  eV     1   --> B              
     e(  3 -  3) =    -19.95065  eV     1   --> A              
     e(  4 -  4) =    -12.70385  eV     1   --> B              
     e(  5 -  5) =     -9.96229  eV     1   --> A              
     e(  6 -  6) =     -9.04297  eV     1   --> B              
     e(  7 -  7) =     -8.44861  eV     1   --> A              
     e(  8 -  8) =     -7.14878  eV     1   --> A              
     e(  9 -  9) =     -7.01159  eV     1   --> B              
     e( 10 - 10) =     -4.79977  eV     1   --> B              
     e( 11 - 11) =     -4.31493  eV     1   --> A              
     e( 12 - 12) =     -0.10326  eV     1   --> B              
     e( 13 - 13) =      3.60074  eV     1   --> A              
     e( 14 - 14) =      4.05459  eV     1   --> A              
     e( 15 - 15) =      4.12560  eV     1   --> B              

 **************************************************************************

 **************************************************************************

                    xk=(   0.07619,   0.13197,   0.00000  )

     Band symmetry, C_2  (2)    point group:

     e(  1 -  1) =    -29.25093  eV     1   --> A              
     e(  2 -  2) =    -28.79803  eV     1   --> B              
     e(  3 -  3) =    -19.91830  eV     1   --> A              
     e(  4 -  4) =    -12.68852  eV     1   --> B              
     e(  5 -  5) =     -9.98025  eV     1   --> A              
     e(  6 -  6) =     -9.15504  eV     1   --> B              
     e(  7 -  7) =     -8.49585  eV     1   --> A              
     e(  8 -  8) =     -7.17427  eV     1   --> A              
     e(  9 -  9) =     -7.02698  eV     1   --> B              
     e( 10 - 10) =     -4.88829  eV     1   --> B              
     e( 11 - 11) =     -4.36099  eV     1   --> A              
     e( 12 - 12) =     -0.02751  eV     1   --> B              
     e( 13 - 13) =      3.63324  eV     1   --> A              
     e( 14 - 14) =      4.11518  eV     1   --> A              
     e( 15 - 15) =      4.18944  eV     1   --> B              

 **************************************************************************

 **************************************************************************

                    xk=(   0.08095,   0.14021,   0.00000  )

     Band symmetry, C_2  (2)    point group:

     e(  1 -  1) =    -29.23280  eV     1   --> A              
     e(  2 -  2) =    -28.78525  eV     1   --> B              
     e(  3 -  3) =    -19.88388  eV     1   --> A              
     e(  4 -  4) =    -12.67258  eV     1   --> B              
     e(  5 -  5) =     -9.99979  eV     1   --> A              
     e(  6 -  6) =     -9.27052  eV     1   --> B              
     e(  7 -  7) =     -8.54569  eV     1   --> A              
     e(  8 -  8) =     -7.20027  eV     1   --> A              
     e(  9 -  9) =     -7.04396  eV     1   --> B              
     e( 10 - 10) =     -4.97757  eV     1   --> B              
     e( 11 - 11) =     -4.40901  eV     1   --> A              
     e( 12 - 12) =      0.04976  eV     1   --> B              
     e( 13 - 13) =      3.66870  eV     1   --> A              
     e( 14 - 14) =      4.17930  eV     1   --> A              
     e( 15 - 15) =      4.25465  eV     1   --> B              

 **************************************************************************

 **************************************************************************

                    xk=(   0.08571,   0.14846,   0.00000  )

     Band symmetry, C_2  (2)    point group:

     e(  1 -  1) =    -29.21379  eV     1   --> A              
     e(  2 -  2) =    -28.77188  eV     1   --> B              
     e(  3 -  3) =    -19.84738  eV     1   --> A              
     e(  4 -  4) =    -12.65611  eV     1   --> B              
     e(  5 -  5) =    -10.02100  eV     1   --> A              
     e(  6 -  6) =     -9.38895  eV     1   --> B              
     e(  7 -  7) =     -8.59800  eV     1   --> A              
     e(  8 -  8) =     -7.22669  eV     1   --> A              
     e(  9 -  9) =     -7.06258  eV     1   --> B              
     e( 10 - 10) =     -5.06719  eV     1   --> B              
     e( 11 - 11) =     -4.45881  eV     1   --> A              
     e( 12 - 12) =      0.12839  eV     1   --> B              
     e( 13 - 13) =      3.70717  eV     1   --> A              
     e( 14 - 14) =      4.24694  eV     1   --> A              
     e( 15 - 15) =      4.32170  eV     1   --> B              

 **************************************************************************

 **************************************************************************

                    xk=(   0.09048,   0.15671,   0.00000  )

     Band symmetry, C_2  (2)    point group:

     e(  1 -  1) =    -29.19394  eV     1   --> A              
     e(  2 -  2) =    -28.75796  eV     1   --> B              
     e(  3 -  3) =    -19.80880  eV     1   --> A              
     e(  4 -  4) =    -12.63924  eV     1   --> B              
     e(  5 -  5) =    -10.04394  eV     1   --> A              
     e(  6 -  6) =     -9.50983  eV     1   --> B              
     e(  7 -  7) =     -8.65261  eV     1   --> A              
     e(  8 -  8) =     -7.25341  eV     1   --> A              
     e(  9 -  9) =     -7.08294  eV     1   --> B              
     e( 10 - 10) =     -5.15679  eV     1   --> B              
     e( 11 - 11) =     -4.51023  eV     1   --> A              
     e( 12 - 12) =      0.20826  eV     1   --> B              
     e( 13 - 13) =      3.74870  eV     1   --> A              
     e( 14 - 14) =      4.31807  eV     1   --> A              
     e( 15 - 15) =      4.39088  eV     1   --> B              

 **************************************************************************

 **************************************************************************

                    xk=(   0.09524,   0.16496,   0.00000  )

     Band symmetry, C_2  (2)    point group:

     e(  1 -  1) =    -29.17329  eV     1   --> A              
     e(  2 -  2) =    -28.74352  eV     1   --> B              
     e(  3 -  3) =    -19.76815  eV     1   --> A              
     e(  4 -  4) =    -12.62206  eV     1   --> B              
     e(  5 -  5) =    -10.06870  eV     1   --> A              
     e(  6 -  6) =     -9.63271  eV     1   --> B              
     e(  7 -  7) =     -8.70935  eV     1   --> A              
     e(  8 -  8) =     -7.28036  eV     1   --> A              
     e(  9 -  9) =     -7.10508  eV     1   --> B              
     e( 10 - 10) =     -5.24601  eV     1   --> B              
     e( 11 - 11) =     -4.56308  eV     1   --> A              
     e( 12 - 12) =      0.28926  eV     1   --> B              
     e( 13 - 13) =      3.79332  eV     1   --> A              
     e( 14 - 14) =      4.39266  eV     1   --> A              
     e( 15 - 15) =      4.46242  eV     1   --> B              

 **************************************************************************

 **************************************************************************

                    xk=(   0.10000,   0.17321,   0.00000  )

     Band symmetry, C_2  (2)    point group:

     e(  1 -  1) =    -29.15188  eV     1   --> A              
     e(  2 -  2) =    -28.72859  eV     1   --> B              
     e(  3 -  3) =    -19.72543  eV     1   --> A              
     e(  4 -  4) =    -12.60472  eV     1   --> B              
     e(  5 -  5) =    -10.09538  eV     1   --> A              
     e(  6 -  6) =     -9.75710  eV     1   --> B              
     e(  7 -  7) =     -8.76801  eV     1   --> A              
     e(  8 -  8) =     -7.30744  eV     1   --> A              
     e(  9 -  9) =     -7.12910  eV     1   --> B              
     e( 10 - 10) =     -5.33453  eV     1   --> B              
     e( 11 - 11) =     -4.61718  eV     1   --> A              
     e( 12 - 12) =      0.37130  eV     1   --> B              
     e( 13 - 13) =      3.84106  eV     1   --> A              
     e( 14 - 14) =      4.47069  eV     1   --> A              
     e( 15 - 15) =      4.53643  eV     1   --> B              

 **************************************************************************

 **************************************************************************

                    xk=(   0.10476,   0.18145,   0.00000  )

     Band symmetry, C_2  (2)    point group:

     e(  1 -  1) =    -29.12977  eV     1   --> A              
     e(  2 -  2) =    -28.71321  eV     1   --> B              
     e(  3 -  3) =    -19.68064  eV     1   --> A              
     e(  4 -  4) =    -12.58739  eV     1   --> B              
     e(  5 -  5) =    -10.12406  eV     1   --> A              
     e(  6 -  6) =     -9.88255  eV     1   --> B              
     e(  7 -  7) =     -8.82839  eV     1   --> A              
     e(  8 -  8) =     -7.33458  eV     1   --> A              
     e(  9 -  9) =     -7.15504  eV     1   --> B              
     e( 10 - 10) =     -5.42203  eV     1   --> B              
     e( 11 - 11) =     -4.67236  eV     1   --> A              
     e( 12 - 12) =      0.45432  eV     1   --> B              
     e( 13 - 13) =      3.89194  eV     1   --> A              
     e( 14 - 14) =      4.55211  eV     1   --> A              
     e( 15 - 15) =      4.61297  eV     1   --> B              

 **************************************************************************

 **************************************************************************

                    xk=(   0.10952,   0.18970,   0.00000  )

     Band symmetry, C_2  (2)    point group:

     e(  1 -  1) =    -29.10698  eV     1   --> A              
     e(  2 -  2) =    -28.69742  eV     1   --> B              
     e(  3 -  3) =    -19.63378  eV     1   --> A              
     e(  4 -  4) =    -12.57024  eV     1   --> B              
     e(  5 -  5) =    -10.15483  eV     1   --> A              
     e(  6 -  6) =    -10.00856  eV     1   --> B              
     e(  7 -  7) =     -8.89028  eV     1   --> A              
     e(  8 -  8) =     -7.36169  eV     1   --> A              
     e(  9 -  9) =     -7.18298  eV     1   --> B              
     e( 10 - 10) =     -5.50823  eV     1   --> B              
     e( 11 - 11) =     -4.72845  eV     1   --> A              
     e( 12 - 12) =      0.53826  eV     1   --> B              
     e( 13 - 13) =      3.94597  eV     1   --> A              
     e( 14 - 14) =      4.63687  eV     1   --> A              
     e( 15 - 15) =      4.69201  eV     1   --> B              

 **************************************************************************

 **************************************************************************

                    xk=(   0.11429,   0.19795,   0.00000  )

     Band symmetry, C_2  (2)    point group:

     e(  1 -  1) =    -29.08357  eV     1   --> A              
     e(  2 -  2) =    -28.68127  eV     1   --> B              
     e(  3 -  3) =    -19.58485  eV     1   --> A              
     e(  4 -  4) =    -12.55351  eV     1   --> B              
     e(  5 -  5) =    -10.18779  eV     1   --> A              
     e(  6 -  6) =    -10.13465  eV     1   --> B              
     e(  7 -  7) =     -8.95345  eV     1   --> A              
     e(  8 -  8) =     -7.38870  eV     1   --> A              
     e(  9 -  9) =     -7.21297  eV     1   --> B              
     e( 10 - 10) =     -5.59287  eV     1   --> B              
     e( 11 - 11) =     -4.78527  eV     1   --> A              
     e( 12 - 12) =      0.62309  eV     1   --> B              
     e( 13 - 13) =      4.00315  eV     1   --> A              
     e( 14 - 14) =      4.72489  eV     1   --> A              
     e( 15 - 15) =      4.77353  eV     1   --> B              

 **************************************************************************

 **************************************************************************

                    xk=(   0.11905,   0.20620,   0.00000  )

     Band symmetry, C_2  (2)    point group:

     e(  1 -  1) =    -29.05960  eV     1   --> A              
     e(  2 -  2) =    -28.66477  eV     1   --> B              
     e(  3 -  3) =    -19.53384  eV     1   --> A              
     e(  4 -  4) =    -12.53748  eV     1   --> B              
     e(  5 -  5) =    -10.26029  eV     1   --> B              
     e(  6 -  6) =    -10.22304  eV     1   --> A              
     e(  7 -  7) =     -9.01766  eV     1   --> A              
     e(  8 -  8) =     -7.41554  eV     1   --> A              
     e(  9 -  9) =     -7.24507  eV     1   --> B              
     e( 10 - 10) =     -5.67570  eV     1   --> B              
     e( 11 - 11) =     -4.84267  eV     1   --> A              
     e( 12 - 12) =      0.70877  eV     1   --> B              
     e( 13 - 13) =      4.06349  eV     1   --> A              
     e( 14 - 14) =      4.81610  eV     1   --> A              
     e( 15 - 15) =      4.85740  eV     1   --> B              

 **************************************************************************

 **************************************************************************

                    xk=(   0.12381,   0.21444,   0.00000  )

     Band symmetry, C_2  (2)    point group:

     e(  1 -  1) =    -29.03510  eV     1   --> A              
     e(  2 -  2) =    -28.64799  eV     1   --> B              
     e(  3 -  3) =    -19.48077  eV     1   --> A              
     e(  4 -  4) =    -12.52247  eV     1   --> B              
     e(  5 -  5) =    -10.38493  eV     1   --> B              
     e(  6 -  6) =    -10.26066  eV     1   --> A              
     e(  7 -  7) =     -9.08267  eV     1   --> A              
     e(  8 -  8) =     -7.44215  eV     1   --> A              
     e(  9 -  9) =     -7.27930  eV     1   --> B              
     e( 10 - 10) =     -5.75649  eV     1   --> B              
     e( 11 - 11) =     -4.90049  eV     1   --> A              
     e( 12 - 12) =      0.79528  eV     1   --> B              
     e( 13 - 13) =      4.12698  eV     1   --> A              
     e( 14 - 14) =      4.91039  eV     1   --> A              
     e( 15 - 15) =      4.94349  eV     1   --> B              

 **************************************************************************

 **************************************************************************

                    xk=(   0.12857,   0.22269,   0.00000  )

     Band symmetry, C_2  (2)    point group:

     e(  1 -  1) =    -29.01014  eV     1   --> A              
     e(  2 -  2) =    -28.63097  eV     1   --> B              
     e(  3 -  3) =    -19.42563  eV     1   --> A              
     e(  4 -  4) =    -12.50890  eV     1   --> B              
     e(  5 -  5) =    -10.50793  eV     1   --> B              
     e(  6 -  6) =    -10.30076  eV     1   --> A              
     e(  7 -  7) =     -9.14824  eV     1   --> A              
     e(  8 -  8) =     -7.46844  eV     1   --> A              
     e(  9 -  9) =     -7.31568  eV     1   --> B              
     e( 10 - 10) =     -5.83506  eV     1   --> B              
     e( 11 - 11) =     -4.95860  eV     1   --> A              
     e( 12 - 12) =      0.88259  eV     1   --> B              
     e( 13 - 13) =      4.19359  eV     1   --> A              
     e( 14 - 14) =      5.00762  eV     1   --> A              
     e( 15 - 15) =      5.03162  eV     1   --> B              

 **************************************************************************

 **************************************************************************

                    xk=(   0.13333,   0.23094,   0.00000  )

     Band symmetry, C_2  (2)    point group:

     e(  1 -  1) =    -28.98476  eV     1   --> A              
     e(  2 -  2) =    -28.61373  eV     1   --> B              
     e(  3 -  3) =    -19.36842  eV     1   --> A              
     e(  4 -  4) =    -12.49726  eV     1   --> B              
     e(  5 -  5) =    -10.62863  eV     1   --> B              
     e(  6 -  6) =    -10.34344  eV     1   --> A              
     e(  7 -  7) =     -9.21411  eV     1   --> A              
     e(  8 -  8) =     -7.49434  eV     1   --> A              
     e(  9 -  9) =     -7.35420  eV     1   --> B              
     e( 10 - 10) =     -5.91125  eV     1   --> B              
     e( 11 - 11) =     -5.01684  eV     1   --> A              
     e( 12 - 12) =      0.97068  eV     1   --> B              
     e( 13 - 13) =      4.26329  eV     1   --> A              
     e( 14 - 14) =      5.10762  eV     1   --> A              
     e( 15 - 15) =      5.12152  eV     1   --> B              

 **************************************************************************

 **************************************************************************

                    xk=(   0.13810,   0.23919,   0.00000  )

     Band symmetry, C_2  (2)    point group:

     e(  1 -  1) =    -28.95902  eV     1   --> A              
     e(  2 -  2) =    -28.59634  eV     1   --> B              
     e(  3 -  3) =    -19.30914  eV     1   --> A              
     e(  4 -  4) =    -12.48817  eV     1   --> B              
     e(  5 -  5) =    -10.74621  eV     1   --> B              
     e(  6 -  6) =    -10.38877  eV     1   --> A              
     e(  7 -  7) =     -9.28004  eV     1   --> A              
     e(  8 -  8) =     -7.51979  eV     1   --> A              
     e(  9 -  9) =     -7.39482  eV     1   --> B              
     e( 10 - 10) =     -5.98493  eV     1   --> B              
     e( 11 - 11) =     -5.07511  eV     1   --> A              
     e( 12 - 12) =      1.05955  eV     1   --> B              
     e( 13 - 13) =      4.33605  eV     1   --> A              
     e( 14 - 14) =      5.21016  eV     1   --> A              
     e( 15 - 15) =      5.21293  eV     1   --> B              

 **************************************************************************

 **************************************************************************

                    xk=(   0.14286,   0.24744,   0.00000  )

     Band symmetry, C_2  (2)    point group:

     e(  1 -  1) =    -28.93298  eV     1   --> A              
     e(  2 -  2) =    -28.57883  eV     1   --> B              
     e(  3 -  3) =    -19.24779  eV     1   --> A              
     e(  4 -  4) =    -12.48241  eV     1   --> B              
     e(  5 -  5) =    -10.85976  eV     1   --> B              
     e(  6 -  6) =    -10.43684  eV     1   --> A              
     e(  7 -  7) =     -9.34577  eV     1   --> A              
     e(  8 -  8) =     -7.54471  eV     1   --> A              
     e(  9 -  9) =     -7.43749  eV     1   --> B              
     e( 10 - 10) =     -6.05600  eV     1   --> B              
     e( 11 - 11) =     -5.13328  eV     1   --> A              
     e( 12 - 12) =      1.14918  eV     1   --> B              
     e( 13 - 13) =      4.41180  eV     1   --> A              
     e( 14 - 14) =      5.30548  eV     1   --> B              
     e( 15 - 15) =      5.31496  eV     1   --> A              

 **************************************************************************

 **************************************************************************

                    xk=(   0.14762,   0.25568,   0.00000  )

     Band symmetry, C_2  (2)    point group:

     e(  1 -  1) =    -28.90669  eV     1   --> A              
     e(  2 -  2) =    -28.56125  eV     1   --> B              
     e(  3 -  3) =    -19.18437  eV     1   --> A              
     e(  4 -  4) =    -12.48090  eV     1   --> B              
     e(  5 -  5) =    -10.96821  eV     1   --> B              
     e(  6 -  6) =    -10.48773  eV     1   --> A              
     e(  7 -  7) =     -9.41107  eV     1   --> A              
     e(  8 -  8) =     -7.56902  eV     1   --> A              
     e(  9 -  9) =     -7.48209  eV     1   --> B              
     e( 10 - 10) =     -6.12441  eV     1   --> B              
     e( 11 - 11) =     -5.19127  eV     1   --> A              
     e( 12 - 12) =      1.23956  eV     1   --> B              
     e( 13 - 13) =      4.49050  eV     1   --> A              
     e( 14 - 14) =      5.39879  eV     1   --> B              
     e( 15 - 15) =      5.42163  eV     1   --> A              

 **************************************************************************

 **************************************************************************

                    xk=(   0.15238,   0.26393,   0.00000  )

     Band symmetry, C_2  (2)    point group:

     e(  1 -  1) =    -28.88022  eV     1   --> A              
     e(  2 -  2) =    -28.54365  eV     1   --> B              
     e(  3 -  3) =    -19.11888  eV     1   --> A              
     e(  4 -  4) =    -12.48474  eV     1   --> B              
     e(  5 -  5) =    -11.07032  eV     1   --> B              
     e(  6 -  6) =    -10.54149  eV     1   --> A              
     e(  7 -  7) =     -9.47570  eV     1   --> A              
     e(  8 -  8) =     -7.59264  eV     1   --> A              
     e(  9 -  9) =     -7.52850  eV     1   --> B              
     e( 10 - 10) =     -6.19016  eV     1   --> B              
     e( 11 - 11) =     -5.24898  eV     1   --> A              
     e( 12 - 12) =      1.33067  eV     1   --> B              
     e( 13 - 13) =      4.57204  eV     1   --> A              
     e( 14 - 14) =      5.49240  eV     1   --> B              
     e( 15 - 15) =      5.52967  eV     1   --> A              

 **************************************************************************

 **************************************************************************

                    xk=(   0.15714,   0.27218,   0.00000  )

     Band symmetry, C_2  (2)    point group:

     e(  1 -  1) =    -28.85361  eV     1   --> A              
     e(  2 -  2) =    -28.52607  eV     1   --> B              
     e(  3 -  3) =    -19.05133  eV     1   --> A              
     e(  4 -  4) =    -12.49522  eV     1   --> B              
     e(  5 -  5) =    -11.16471  eV     1   --> B              
     e(  6 -  6) =    -10.59816  eV     1   --> A              
     e(  7 -  7) =     -9.53943  eV     1   --> A              
     e(  8 -  8) =     -7.61552  eV     1   --> A              
     e(  9 -  9) =     -7.57656  eV     1   --> B              
     e( 10 - 10) =     -6.25325  eV     1   --> B              
     e( 11 - 11) =     -5.30633  eV     1   --> A              
     e( 12 - 12) =      1.42251  eV     1   --> B              
     e( 13 - 13) =      4.65633  eV     1   --> A              
     e( 14 - 14) =      5.58584  eV     1   --> B              
     e( 15 - 15) =      5.63840  eV     1   --> A              

 **************************************************************************

 **************************************************************************

                    xk=(   0.16190,   0.28043,   0.00000  )

     Band symmetry, C_2  (2)    point group:

     e(  1 -  1) =    -28.82692  eV     1   --> A              
     e(  2 -  2) =    -28.50855  eV     1   --> B              
     e(  3 -  3) =    -18.98171  eV     1   --> A              
     e(  4 -  4) =    -12.51369  eV     1   --> B              
     e(  5 -  5) =    -11.24994  eV     1   --> B              
     e(  6 -  6) =    -10.65776  eV     1   --> A              
     e(  7 -  7) =     -9.60207  eV     1   --> A              
     e(  8 -  8) =     -7.63756  eV     1   --> A              
     e(  9 -  9) =     -7.62606  eV     1   --> B              
     e( 10 - 10) =     -6.31375  eV     1   --> B              
     e( 11 - 11) =     -5.36326  eV     1   --> A              
     e( 12 - 12) =      1.51505  eV     1   --> B              
     e( 13 - 13) =      4.74323  eV     1   --> A              
     e( 14 - 14) =      5.67860  eV     1   --> B              
     e( 15 - 15) =      5.74690  eV     1   --> A              

 **************************************************************************

 **************************************************************************

                    xk=(   0.16667,   0.28868,   0.00000  )

     Band symmetry, C_2  (2)    point group:

     e(  1 -  1) =    -28.80022  eV     1   --> A              
     e(  2 -  2) =    -28.49115  eV     1   --> B              
     e(  3 -  3) =    -18.91002  eV     1   --> A              
     e(  4 -  4) =    -12.54142  eV     1   --> B              
     e(  5 -  5) =    -11.32461  eV     1   --> B              
     e(  6 -  6) =    -10.72028  eV     1   --> A              
     e(  7 -  7) =     -9.66345  eV     1   --> A              
     e(  8 -  8) =     -7.67679  eV     1   --> B              
     e(  9 -  9) =     -7.65870  eV     1   --> A              
     e( 10 - 10) =     -6.37174  eV     1   --> B              
     e( 11 - 11) =     -5.41972  eV     1   --> A              
     e( 12 - 12) =      1.60829  eV     1   --> B              
     e( 13 - 13) =      4.83257  eV     1   --> A              
     e( 14 - 14) =      5.77021  eV     1   --> B              
     e( 15 - 15) =      5.85395  eV     1   --> A              

 **************************************************************************

 **************************************************************************

                    xk=(   0.17143,   0.29692,   0.00000  )

     Band symmetry, C_2  (2)    point group:

     e(  1 -  1) =    -28.77357  eV     1   --> A              
     e(  2 -  2) =    -28.47390  eV     1   --> B              
     e(  3 -  3) =    -18.83627  eV     1   --> A              
     e(  4 -  4) =    -12.57943  eV     1   --> B              
     e(  5 -  5) =    -11.38766  eV     1   --> B              
     e(  6 -  6) =    -10.78567  eV     1   --> A              
     e(  7 -  7) =     -9.72339  eV     1   --> A              
     e(  8 -  8) =     -7.72850  eV     1   --> B              
     e(  9 -  9) =     -7.67886  eV     1   --> A              
     e( 10 - 10) =     -6.42733  eV     1   --> B              
     e( 11 - 11) =     -5.47566  eV     1   --> A              
     e( 12 - 12) =      1.70220  eV     1   --> B              
     e( 13 - 13) =      4.92413  eV     1   --> A              
     e( 14 - 14) =      5.86021  eV     1   --> B              
     e( 15 - 15) =      5.95793  eV     1   --> A              

 **************************************************************************

 **************************************************************************

                    xk=(   0.17619,   0.30517,   0.00000  )

     Band symmetry, C_2  (2)    point group:

     e(  1 -  1) =    -28.74701  eV     1   --> A              
     e(  2 -  2) =    -28.45686  eV     1   --> B              
     e(  3 -  3) =    -18.76046  eV     1   --> A              
     e(  4 -  4) =    -12.62819  eV     1   --> B              
     e(  5 -  5) =    -11.43853  eV     1   --> B              
     e(  6 -  6) =    -10.85388  eV     1   --> A              
     e(  7 -  7) =     -9.78177  eV     1   --> A              
     e(  8 -  8) =     -7.78095  eV     1   --> B              
     e(  9 -  9) =     -7.69798  eV     1   --> A              
     e( 10 - 10) =     -6.48065  eV     1   --> B              
     e( 11 - 11) =     -5.53104  eV     1   --> A              
     e( 12 - 12) =      1.79677  eV     1   --> B              
     e( 13 - 13) =      5.01763  eV     1   --> A              
     e( 14 - 14) =      5.94824  eV     1   --> B              
     e( 15 - 15) =      6.05672  eV     1   --> A              

 **************************************************************************

 **************************************************************************

                    xk=(   0.18095,   0.31342,   0.00000  )

     Band symmetry, C_2  (2)    point group:

     e(  1 -  1) =    -28.72062  eV     1   --> A              
     e(  2 -  2) =    -28.44006  eV     1   --> B              
     e(  3 -  3) =    -18.68260  eV     1   --> A              
     e(  4 -  4) =    -12.68753  eV     1   --> B              
     e(  5 -  5) =    -11.47737  eV     1   --> B              
     e(  6 -  6) =    -10.92480  eV     1   --> A              
     e(  7 -  7) =     -9.83850  eV     1   --> A              
     e(  8 -  8) =     -7.83387  eV     1   --> B              
     e(  9 -  9) =     -7.71597  eV     1   --> A              
     e( 10 - 10) =     -6.53183  eV     1   --> B              
     e( 11 - 11) =     -5.58584  eV     1   --> A              
     e( 12 - 12) =      1.89197  eV     1   --> B              
     e( 13 - 13) =      5.11268  eV     1   --> A              
     e( 14 - 14) =      6.03401  eV     1   --> B              
     e( 15 - 15) =      6.14781  eV     1   --> A              

 **************************************************************************

 **************************************************************************

                    xk=(   0.18571,   0.32167,   0.00000  )

     Band symmetry, C_2  (2)    point group:

     e(  1 -  1) =    -28.69444  eV     1   --> A              
     e(  2 -  2) =    -28.42356  eV     1   --> B              
     e(  3 -  3) =    -18.60268  eV     1   --> A              
     e(  4 -  4) =    -12.75660  eV     1   --> B              
     e(  5 -  5) =    -11.50493  eV     1   --> B              
     e(  6 -  6) =    -10.99830  eV     1   --> A              
     e(  7 -  7) =     -9.89350  eV     1   --> A              
     e(  8 -  8) =     -7.88700  eV     1   --> B              
     e(  9 -  9) =     -7.73279  eV     1   --> A              
     e( 10 - 10) =     -6.58103  eV     1   --> B              
     e( 11 - 11) =     -5.64003  eV     1   --> A              
     e( 12 - 12) =      1.98778  eV     1   --> B              
     e( 13 - 13) =      5.20877  eV     1   --> A              
     e( 14 - 14) =      6.11737  eV     1   --> B              
     e( 15 - 15) =      6.22848  eV     1   --> A              

 **************************************************************************

 **************************************************************************

                    xk=(   0.19048,   0.32991,   0.00000  )

     Band symmetry, C_2  (2)    point group:

     e(  1 -  1) =    -28.66854  eV     1   --> A              
     e(  2 -  2) =    -28.40738  eV     1   --> B              
     e(  3 -  3) =    -18.52072  eV     1   --> A              
     e(  4 -  4) =    -12.83415  eV     1   --> B              
     e(  5 -  5) =    -11.52245  eV     1   --> B              
     e(  6 -  6) =    -11.07423  eV     1   --> A              
     e(  7 -  7) =     -9.94673  eV     1   --> A              
     e(  8 -  8) =     -7.94008  eV     1   --> B              
     e(  9 -  9) =     -7.74835  eV     1   --> A              
     e( 10 - 10) =     -6.62837  eV     1   --> B              
     e( 11 - 11) =     -5.69361  eV     1   --> A              
     e( 12 - 12) =      2.08416  eV     1   --> B              
     e( 13 - 13) =      5.30516  eV     1   --> A              
     e( 14 - 14) =      6.19824  eV     1   --> B              
     e( 15 - 15) =      6.29645  eV     1   --> A              

 **************************************************************************

 **************************************************************************

                    xk=(   0.19524,   0.33816,   0.00000  )

     Band symmetry, C_2  (2)    point group:

     e(  1 -  1) =    -28.64296  eV     1   --> A              
     e(  2 -  2) =    -28.39158  eV     1   --> B              
     e(  3 -  3) =    -18.43673  eV     1   --> A              
     e(  4 -  4) =    -12.91868  eV     1   --> B              
     e(  5 -  5) =    -11.53139  eV     1   --> B              
     e(  6 -  6) =    -11.15242  eV     1   --> A              
     e(  7 -  7) =     -9.99816  eV     1   --> A              
     e(  8 -  8) =     -7.99288  eV     1   --> B              
     e(  9 -  9) =     -7.76259  eV     1   --> A              
     e( 10 - 10) =     -6.67401  eV     1   --> B              
     e( 11 - 11) =     -5.74656  eV     1   --> A              
     e( 12 - 12) =      2.18109  eV     1   --> B              
     e( 13 - 13) =      5.40083  eV     1   --> A              
     e( 14 - 14) =      6.27666  eV     1   --> B              
     e( 15 - 15) =      6.35071  eV     1   --> A              

 **************************************************************************

 **************************************************************************

                    xk=(   0.20000,   0.34641,   0.00000  )

     Band symmetry, C_2  (2)    point group:

     e(  1 -  1) =    -28.61776  eV     1   --> A              
     e(  2 -  2) =    -28.37620  eV     1   --> B              
     e(  3 -  3) =    -18.35072  eV     1   --> A              
     e(  4 -  4) =    -13.00871  eV     1   --> B              
     e(  5 -  5) =    -11.53319  eV     1   --> B              
     e(  6 -  6) =    -11.23265  eV     1   --> A              
     e(  7 -  7) =    -10.04780  eV     1   --> A              
     e(  8 -  8) =     -8.04514  eV     1   --> B              
     e(  9 -  9) =     -7.77546  eV     1   --> A              
     e( 10 - 10) =     -6.71808  eV     1   --> B              
     e( 11 - 11) =     -5.79888  eV     1   --> A              
     e( 12 - 12) =      2.27852  eV     1   --> B              
     e( 13 - 13) =      5.49429  eV     1   --> A              
     e( 14 - 14) =      6.35271  eV     1   --> B              
     e( 15 - 15) =      6.39227  eV     1   --> A              

 **************************************************************************

 **************************************************************************

                    xk=(   0.20476,   0.35466,   0.00000  )

     Band symmetry, C_2  (2)    point group:

     e(  1 -  1) =    -28.59300  eV     1   --> A              
     e(  2 -  2) =    -28.36127  eV     1   --> B              
     e(  3 -  3) =    -18.26270  eV     1   --> A              
     e(  4 -  4) =    -13.10291  eV     1   --> B              
     e(  5 -  5) =    -11.52917  eV     1   --> B              
     e(  6 -  6) =    -11.31473  eV     1   --> A              
     e(  7 -  7) =    -10.09565  eV     1   --> A              
     e(  8 -  8) =     -8.09666  eV     1   --> B              
     e(  9 -  9) =     -7.78688  eV     1   --> A              
     e( 10 - 10) =     -6.76068  eV     1   --> B              
     e( 11 - 11) =     -5.85056  eV     1   --> A              
     e( 12 - 12) =      2.37642  eV     1   --> B              
     e( 13 - 13) =      5.58340  eV     1   --> A              
     e( 14 - 14) =      6.42438  eV     1   --> A              
     e( 15 - 15) =      6.42654  eV     1   --> B              

 **************************************************************************

 **************************************************************************

                    xk=(   0.20952,   0.36291,   0.00000  )

     Band symmetry, C_2  (2)    point group:

     e(  1 -  1) =    -28.56872  eV     1   --> A              
     e(  2 -  2) =    -28.34683  eV     1   --> B              
     e(  3 -  3) =    -18.17269  eV     1   --> A              
     e(  4 -  4) =    -13.20011  eV     1   --> B              
     e(  5 -  5) =    -11.52046  eV     1   --> B              
     e(  6 -  6) =    -11.39841  eV     1   --> A              
     e(  7 -  7) =    -10.14176  eV     1   --> A              
     e(  8 -  8) =     -8.14722  eV     1   --> B              
     e(  9 -  9) =     -7.79680  eV     1   --> A              
     e( 10 - 10) =     -6.80193  eV     1   --> B              
     e( 11 - 11) =     -5.90160  eV     1   --> A              
     e( 12 - 12) =      2.47473  eV     1   --> B              
     e( 13 - 13) =      5.66511  eV     1   --> A              
     e( 14 - 14) =      6.45223  eV     1   --> A              
     e( 15 - 15) =      6.49830  eV     1   --> B              

 **************************************************************************

 **************************************************************************

                    xk=(   0.21429,   0.37115,   0.00000  )

     Band symmetry, C_2  (2)    point group:

     e(  1 -  1) =    -28.54498  eV     1   --> A              
     e(  2 -  2) =    -28.33291  eV     1   --> B              
     e(  3 -  3) =    -18.08073  eV     1   --> A              
     e(  4 -  4) =    -13.29938  eV     1   --> B              
     e(  5 -  5) =    -11.50799  eV     1   --> B              
     e(  6 -  6) =    -11.48348  eV     1   --> A              
     e(  7 -  7) =    -10.18615  eV     1   --> A              
     e(  8 -  8) =     -8.19667  eV     1   --> B              
     e(  9 -  9) =     -7.80515  eV     1   --> A              
     e( 10 - 10) =     -6.84192  eV     1   --> B              
     e( 11 - 11) =     -5.95200  eV     1   --> A              
     e( 12 - 12) =      2.57341  eV     1   --> B              
     e( 13 - 13) =      5.73546  eV     1   --> A              
     e( 14 - 14) =      6.48228  eV     1   --> A              
     e( 15 - 15) =      6.56817  eV     1   --> B              

 **************************************************************************

 **************************************************************************

                    xk=(   0.21905,   0.37940,   0.00000  )

     Band symmetry, C_2  (2)    point group:

     e(  1 -  1) =    -28.52182  eV     1   --> A              
     e(  2 -  2) =    -28.31955  eV     1   --> B              
     e(  3 -  3) =    -17.98683  eV     1   --> A              
     e(  4 -  4) =    -13.39996  eV     1   --> B              
     e(  5 -  5) =    -11.56968  eV     1   --> A              
     e(  6 -  6) =    -11.49250  eV     1   --> B              
     e(  7 -  7) =    -10.22888  eV     1   --> A              
     e(  8 -  8) =     -8.24482  eV     1   --> B              
     e(  9 -  9) =     -7.81189  eV     1   --> A              
     e( 10 - 10) =     -6.88074  eV     1   --> B              
     e( 11 - 11) =     -6.00177  eV     1   --> A              
     e( 12 - 12) =      2.67240  eV     1   --> B              
     e( 13 - 13) =      5.79010  eV     1   --> A              
     e( 14 - 14) =      6.52125  eV     1   --> A              
     e( 15 - 15) =      6.63627  eV     1   --> B              

 **************************************************************************

 **************************************************************************

                    xk=(   0.22381,   0.38765,   0.00000  )

     Band symmetry, C_2  (2)    point group:

     e(  1 -  1) =    -28.49928  eV     1   --> A              
     e(  2 -  2) =    -28.30679  eV     1   --> B              
     e(  3 -  3) =    -17.89102  eV     1   --> A              
     e(  4 -  4) =    -13.50123  eV     1   --> B              
     e(  5 -  5) =    -11.65677  eV     1   --> A              
     e(  6 -  6) =    -11.47461  eV     1   --> B              
     e(  7 -  7) =    -10.27001  eV     1   --> A              
     e(  8 -  8) =     -8.29153  eV     1   --> B              
     e(  9 -  9) =     -7.81695  eV     1   --> A              
     e( 10 - 10) =     -6.91844  eV     1   --> B              
     e( 11 - 11) =     -6.05089  eV     1   --> A              
     e( 12 - 12) =      2.77163  eV     1   --> B              
     e( 13 - 13) =      5.82568  eV     1   --> A              
     e( 14 - 14) =      6.57446  eV     1   --> A              
     e( 15 - 15) =      6.70273  eV     1   --> B              

 **************************************************************************

 **************************************************************************

                    xk=(   0.22857,   0.39590,   0.00000  )

     Band symmetry, C_2  (2)    point group:

     e(  1 -  1) =    -28.47740  eV     1   --> A              
     e(  2 -  2) =    -28.29464  eV     1   --> B              
     e(  3 -  3) =    -17.79337  eV     1   --> A              
     e(  4 -  4) =    -13.60271  eV     1   --> B              
     e(  5 -  5) =    -11.74451  eV     1   --> A              
     e(  6 -  6) =    -11.45478  eV     1   --> B              
     e(  7 -  7) =    -10.30959  eV     1   --> A              
     e(  8 -  8) =     -8.33669  eV     1   --> B              
     e(  9 -  9) =     -7.82028  eV     1   --> A              
     e( 10 - 10) =     -6.95508  eV     1   --> B              
     e( 11 - 11) =     -6.09937  eV     1   --> A              
     e( 12 - 12) =      2.87104  eV     1   --> B              
     e( 13 - 13) =      5.84147  eV     1   --> A              
     e( 14 - 14) =      6.64417  eV     1   --> A              
     e( 15 - 15) =      6.76757  eV     1   --> B              

 **************************************************************************

 **************************************************************************

                    xk=(   0.23333,   0.40415,   0.00000  )

     Band symmetry, C_2  (2)    point group:

     e(  1 -  1) =    -28.45623  eV     1   --> A              
     e(  2 -  2) =    -28.28313  eV     1   --> B              
     e(  3 -  3) =    -17.69390  eV     1   --> A              
     e(  4 -  4) =    -13.70401  eV     1   --> B              
     e(  5 -  5) =    -11.83265  eV     1   --> A              
     e(  6 -  6) =    -11.43340  eV     1   --> B              
     e(  7 -  7) =    -10.34769  eV     1   --> A              
     e(  8 -  8) =     -8.38019  eV     1   --> B              
     e(  9 -  9) =     -7.82184  eV     1   --> A              
     e( 10 - 10) =     -6.99070  eV     1   --> B              
     e( 11 - 11) =     -6.14720  eV     1   --> A              
     e( 12 - 12) =      2.97055  eV     1   --> B              
     e( 13 - 13) =      5.83951  eV     1   --> A              
     e( 14 - 14) =      6.72949  eV     1   --> A              
     e( 15 - 15) =      6.83079  eV     1   --> B              

 **************************************************************************

 **************************************************************************

                    xk=(   0.23810,   0.41239,   0.00000  )

     Band symmetry, C_2  (2)    point group:

     e(  1 -  1) =    -28.43580  eV     1   --> A              
     e(  2 -  2) =    -28.27230  eV     1   --> B              
     e(  3 -  3) =    -17.59269  eV     1   --> A              
     e(  4 -  4) =    -13.80483  eV     1   --> B              
     e(  5 -  5) =    -11.92094  eV     1   --> A              
     e(  6 -  6) =    -11.41077  eV     1   --> B              
     e(  7 -  7) =    -10.38438  eV     1   --> A              
     e(  8 -  8) =     -8.42193  eV     1   --> B              
     e(  9 -  9) =     -7.82157  eV     1   --> A              
     e( 10 - 10) =     -7.02533  eV     1   --> B              
     e( 11 - 11) =     -6.19437  eV     1   --> A              
     e( 12 - 12) =      3.07007  eV     1   --> B              
     e( 13 - 13) =      5.82333  eV     1   --> A              
     e( 14 - 14) =      6.82768  eV     1   --> A              
     e( 15 - 15) =      6.89223  eV     1   --> B              

 **************************************************************************

 **************************************************************************

                    xk=(   0.24286,   0.42064,   0.00000  )

     Band symmetry, C_2  (2)    point group:

     e(  1 -  1) =    -28.41614  eV     1   --> A              
     e(  2 -  2) =    -28.26215  eV     1   --> B              
     e(  3 -  3) =    -17.48981  eV     1   --> A              
     e(  4 -  4) =    -13.90491  eV     1   --> B              
     e(  5 -  5) =    -12.00913  eV     1   --> A              
     e(  6 -  6) =    -11.38715  eV     1   --> B              
     e(  7 -  7) =    -10.41973  eV     1   --> A              
     e(  8 -  8) =     -8.46184  eV     1   --> B              
     e(  9 -  9) =     -7.81944  eV     1   --> A              
     e( 10 - 10) =     -7.05900  eV     1   --> B              
     e( 11 - 11) =     -6.24086  eV     1   --> A              
     e( 12 - 12) =      3.16951  eV     1   --> B              
     e( 13 - 13) =      5.79651  eV     1   --> A              
     e( 14 - 14) =      6.93572  eV     1   --> A              
     e( 15 - 15) =      6.95159  eV     1   --> B              

 **************************************************************************

 **************************************************************************

                    xk=(   0.24762,   0.42889,   0.00000  )

     Band symmetry, C_2  (2)    point group:

     e(  1 -  1) =    -28.39728  eV     1   --> A              
     e(  2 -  2) =    -28.25271  eV     1   --> B              
     e(  3 -  3) =    -17.38534  eV     1   --> A              
     e(  4 -  4) =    -14.00406  eV     1   --> B              
     e(  5 -  5) =    -12.09695  eV     1   --> A              
     e(  6 -  6) =    -11.36274  eV     1   --> B              
     e(  7 -  7) =    -10.45379  eV     1   --> A              
     e(  8 -  8) =     -8.49986  eV     1   --> B              
     e(  9 -  9) =     -7.81540  eV     1   --> A              
     e( 10 - 10) =     -7.09170  eV     1   --> B              
     e( 11 - 11) =     -6.28666  eV     1   --> A              
     e( 12 - 12) =      3.26877  eV     1   --> B              
     e( 13 - 13) =      5.76195  eV     1   --> A              
     e( 14 - 14) =      7.00834  eV     1   --> B              
     e( 15 - 15) =      7.05098  eV     1   --> A              

 **************************************************************************

 **************************************************************************

                    xk=(   0.25238,   0.43714,   0.00000  )

     Band symmetry, C_2  (2)    point group:

     e(  1 -  1) =    -28.37924  eV     1   --> A              
     e(  2 -  2) =    -28.24399  eV     1   --> B              
     e(  3 -  3) =    -17.27939  eV     1   --> A              
     e(  4 -  4) =    -14.10211  eV     1   --> B              
     e(  5 -  5) =    -12.18415  eV     1   --> A              
     e(  6 -  6) =    -11.33770  eV     1   --> B              
     e(  7 -  7) =    -10.48665  eV     1   --> A              
     e(  8 -  8) =     -8.53594  eV     1   --> B              
     e(  9 -  9) =     -7.80943  eV     1   --> A              
     e( 10 - 10) =     -7.12344  eV     1   --> B              
     e( 11 - 11) =     -6.33173  eV     1   --> A              
     e( 12 - 12) =      3.36773  eV     1   --> B              
     e( 13 - 13) =      5.72182  eV     1   --> A              
     e( 14 - 14) =      7.06159  eV     1   --> B              
     e( 15 - 15) =      7.17142  eV     1   --> A              

 **************************************************************************

 **************************************************************************

                    xk=(   0.25714,   0.44538,   0.00000  )

     Band symmetry, C_2  (2)    point group:

     e(  1 -  1) =    -28.36205  eV     1   --> A              
     e(  2 -  2) =    -28.23600  eV     1   --> B              
     e(  3 -  3) =    -17.17207  eV     1   --> A              
     e(  4 -  4) =    -14.19894  eV     1   --> B              
     e(  5 -  5) =    -12.27045  eV     1   --> A              
     e(  6 -  6) =    -11.31217  eV     1   --> B              
     e(  7 -  7) =    -10.51837  eV     1   --> A              
     e(  8 -  8) =     -8.57005  eV     1   --> B              
     e(  9 -  9) =     -7.80152  eV     1   --> A              
     e( 10 - 10) =     -7.15422  eV     1   --> B              
     e( 11 - 11) =     -6.37604  eV     1   --> A              
     e( 12 - 12) =      3.46628  eV     1   --> B              
     e( 13 - 13) =      5.67767  eV     1   --> A              
     e( 14 - 14) =      7.10998  eV     1   --> B              
     e( 15 - 15) =      7.29543  eV     1   --> A              

 **************************************************************************

 **************************************************************************

                    xk=(   0.26190,   0.45363,   0.00000  )

     Band symmetry, C_2  (2)    point group:

     e(  1 -  1) =    -28.34573  eV     1   --> A              
     e(  2 -  2) =    -28.22876  eV     1   --> B              
     e(  3 -  3) =    -17.06354  eV     1   --> A              
     e(  4 -  4) =    -14.29444  eV     1   --> B              
     e(  5 -  5) =    -12.35557  eV     1   --> A              
     e(  6 -  6) =    -11.28628  eV     1   --> B              
     e(  7 -  7) =    -10.54902  eV     1   --> A              
     e(  8 -  8) =     -8.60216  eV     1   --> B              
     e(  9 -  9) =     -7.79164  eV     1   --> A              
     e( 10 - 10) =     -7.18403  eV     1   --> B              
     e( 11 - 11) =     -6.41955  eV     1   --> A              
     e( 12 - 12) =      3.56428  eV     1   --> B              
     e( 13 - 13) =      5.63061  eV     1   --> A              
     e( 14 - 14) =      7.15158  eV     1   --> B              
     e( 15 - 15) =      7.42170  eV     1   --> A              

 **************************************************************************

 **************************************************************************

                    xk=(   0.26667,   0.46188,   0.00000  )

     Band symmetry, C_2  (2)    point group:

     e(  1 -  1) =    -28.33029  eV     1   --> A              
     e(  2 -  2) =    -28.22226  eV     1   --> B              
     e(  3 -  3) =    -16.95396  eV     1   --> A              
     e(  4 -  4) =    -14.38853  eV     1   --> B              
     e(  5 -  5) =    -12.43921  eV     1   --> A              
     e(  6 -  6) =    -11.26014  eV     1   --> B              
     e(  7 -  7) =    -10.57867  eV     1   --> A              
     e(  8 -  8) =     -8.63224  eV     1   --> B              
     e(  9 -  9) =     -7.77982  eV     1   --> A              
     e( 10 - 10) =     -7.21285  eV     1   --> B              
     e( 11 - 11) =     -6.46219  eV     1   --> A              
     e( 12 - 12) =      3.66158  eV     1   --> B              
     e( 13 - 13) =      5.58143  eV     1   --> A              
     e( 14 - 14) =      7.18393  eV     1   --> B              
     e( 15 - 15) =      7.54905  eV     1   --> A              

 **************************************************************************

 **************************************************************************

                    xk=(   0.27143,   0.47013,   0.00000  )

     Band symmetry, C_2  (2)    point group:

     e(  1 -  1) =    -28.31574  eV     1   --> A              
     e(  2 -  2) =    -28.21652  eV     1   --> B              
     e(  3 -  3) =    -16.84354  eV     1   --> A              
     e(  4 -  4) =    -14.48112  eV     1   --> B              
     e(  5 -  5) =    -12.52105  eV     1   --> A              
     e(  6 -  6) =    -11.23384  eV     1   --> B              
     e(  7 -  7) =    -10.60738  eV     1   --> A              
     e(  8 -  8) =     -8.66029  eV     1   --> B              
     e(  9 -  9) =     -7.76608  eV     1   --> A              
     e( 10 - 10) =     -7.24067  eV     1   --> B              
     e( 11 - 11) =     -6.50390  eV     1   --> A              
     e( 12 - 12) =      3.75801  eV     1   --> B              
     e( 13 - 13) =      5.53070  eV     1   --> A              
     e( 14 - 14) =      7.20470  eV     1   --> B              
     e( 15 - 15) =      7.67639  eV     1   --> A              

 **************************************************************************

 **************************************************************************

                    xk=(   0.27619,   0.47838,   0.00000  )

     Band symmetry, C_2  (2)    point group:

     e(  1 -  1) =    -28.30209  eV     1   --> A              
     e(  2 -  2) =    -28.21153  eV     1   --> B              
     e(  3 -  3) =    -16.73252  eV     1   --> A              
     e(  4 -  4) =    -14.57216  eV     1   --> B              
     e(  5 -  5) =    -12.60074  eV     1   --> A              
     e(  6 -  6) =    -11.20746  eV     1   --> B              
     e(  7 -  7) =    -10.63522  eV     1   --> A              
     e(  8 -  8) =     -8.68629  eV     1   --> B              
     e(  9 -  9) =     -7.75046  eV     1   --> A              
     e( 10 - 10) =     -7.26746  eV     1   --> B              
     e( 11 - 11) =     -6.54457  eV     1   --> A              
     e( 12 - 12) =      3.85339  eV     1   --> B              
     e( 13 - 13) =      5.47883  eV     1   --> A              
     e( 14 - 14) =      7.21275  eV     1   --> B              
     e( 15 - 15) =      7.74088  eV     1   --> B              

 **************************************************************************

 **************************************************************************

                    xk=(   0.28095,   0.48662,   0.00000  )

     Band symmetry, C_2  (2)    point group:

     e(  1 -  1) =    -28.28933  eV     1   --> A              
     e(  2 -  2) =    -28.20729  eV     1   --> B              
     e(  3 -  3) =    -16.62118  eV     1   --> A              
     e(  4 -  4) =    -14.66161  eV     1   --> B              
     e(  5 -  5) =    -12.67790  eV     1   --> A              
     e(  6 -  6) =    -11.18110  eV     1   --> B              
     e(  7 -  7) =    -10.66224  eV     1   --> A              
     e(  8 -  8) =     -8.71024  eV     1   --> B              
     e(  9 -  9) =     -7.73303  eV     1   --> A              
     e( 10 - 10) =     -7.29320  eV     1   --> B              
     e( 11 - 11) =     -6.58411  eV     1   --> A              
     e( 12 - 12) =      3.94752  eV     1   --> B              
     e( 13 - 13) =      5.42611  eV     1   --> A              
     e( 14 - 14) =      7.20899  eV     1   --> B              
     e( 15 - 15) =      7.76974  eV     1   --> B              

 **************************************************************************

 **************************************************************************

                    xk=(   0.28571,   0.49487,   0.00000  )

     Band symmetry, C_2  (2)    point group:

     e(  1 -  1) =    -28.27749  eV     1   --> A              
     e(  2 -  2) =    -28.20379  eV     1   --> B              
     e(  3 -  3) =    -16.50986  eV     1   --> A              
     e(  4 -  4) =    -14.74941  eV     1   --> B              
     e(  5 -  5) =    -12.75211  eV     1   --> A              
     e(  6 -  6) =    -11.15484  eV     1   --> B              
     e(  7 -  7) =    -10.68850  eV     1   --> A              
     e(  8 -  8) =     -8.73212  eV     1   --> B              
     e(  9 -  9) =     -7.71391  eV     1   --> A              
     e( 10 - 10) =     -7.31786  eV     1   --> B              
     e( 11 - 11) =     -6.62237  eV     1   --> A              
     e( 12 - 12) =      4.04019  eV     1   --> B              
     e( 13 - 13) =      5.37277  eV     1   --> A              
     e( 14 - 14) =      7.19599  eV     1   --> B              
     e( 15 - 15) =      7.81056  eV     1   --> B              

 **************************************************************************

 **************************************************************************

                    xk=(   0.29048,   0.50312,   0.00000  )

     Band symmetry, C_2  (2)    point group:

     e(  1 -  1) =    -28.26654  eV     1   --> A              
     e(  2 -  2) =    -28.20102  eV     1   --> B              
     e(  3 -  3) =    -16.39898  eV     1   --> A              
     e(  4 -  4) =    -14.83554  eV     1   --> B              
     e(  5 -  5) =    -12.82290  eV     1   --> A              
     e(  6 -  6) =    -11.12876  eV     1   --> B              
     e(  7 -  7) =    -10.71404  eV     1   --> A              
     e(  8 -  8) =     -8.75195  eV     1   --> B              
     e(  9 -  9) =     -7.69326  eV     1   --> A              
     e( 10 - 10) =     -7.34143  eV     1   --> B              
     e( 11 - 11) =     -6.65916  eV     1   --> A              
     e( 12 - 12) =      4.13113  eV     1   --> B              
     e( 13 - 13) =      5.31895  eV     1   --> A              
     e( 14 - 14) =      7.17680  eV     1   --> B              
     e( 15 - 15) =      7.86068  eV     1   --> B              

 **************************************************************************

 **************************************************************************

                    xk=(   0.29524,   0.51137,   0.00000  )

     Band symmetry, C_2  (2)    point group:

     e(  1 -  1) =    -28.25648  eV     1   --> A              
     e(  2 -  2) =    -28.19897  eV     1   --> B              
     e(  3 -  3) =    -16.28900  eV     1   --> A              
     e(  4 -  4) =    -14.91996  eV     1   --> B              
     e(  5 -  5) =    -12.88973  eV     1   --> A              
     e(  6 -  6) =    -11.10294  eV     1   --> B              
     e(  7 -  7) =    -10.73892  eV     1   --> A              
     e(  8 -  8) =     -8.76970  eV     1   --> B              
     e(  9 -  9) =     -7.67126  eV     1   --> A              
     e( 10 - 10) =     -7.36388  eV     1   --> B              
     e( 11 - 11) =     -6.69427  eV     1   --> A              
     e( 12 - 12) =      4.22009  eV     1   --> B              
     e( 13 - 13) =      5.26476  eV     1   --> A              
     e( 14 - 14) =      7.15414  eV     1   --> B              
[...]
     e(  8 -  8) =     -7.12070  eV     1   --> A'             
     e(  9 -  9) =     -6.96548  eV     1   --> A''            
     e( 10 - 10) =     -4.64673  eV     1   --> A'             
     e( 11 - 11) =     -4.20360  eV     1   --> A''            
     e( 12 - 12) =     -0.25919  eV     1   --> A'             
     e( 13 - 13) =      3.48139  eV     1   --> A'             
     e( 14 - 14) =      3.93626  eV     1   --> A'             
     e( 15 - 15) =      4.13930  eV     1   --> A''            

 **************************************************************************

 **************************************************************************

                    xk=(   0.10000,   0.05774,   0.00000  )

     Band symmetry, C_s (m)     point group:

     e(  1 -  1) =    -29.31227  eV     1   --> A'             
     e(  2 -  2) =    -28.84149  eV     1   --> A'             
     e(  3 -  3) =    -20.03208  eV     1   --> A'             
     e(  4 -  4) =    -12.74390  eV     1   --> A'             
     e(  5 -  5) =     -9.91993  eV     1   --> A'             
     e(  6 -  6) =     -8.75422  eV     1   --> A'             
     e(  7 -  7) =     -8.31445  eV     1   --> A''            
     e(  8 -  8) =     -7.09625  eV     1   --> A'             
     e(  9 -  9) =     -6.95997  eV     1   --> A''            
     e( 10 - 10) =     -4.57001  eV     1   --> A'             
     e( 11 - 11) =     -4.17506  eV     1   --> A''            
     e( 12 - 12) =     -0.31709  eV     1   --> A'             
     e( 13 - 13) =      3.47292  eV     1   --> A'             
     e( 14 - 14) =      3.89425  eV     1   --> A'             
     e( 15 - 15) =      4.05114  eV     1   --> A''            

 **************************************************************************

 **************************************************************************

                    xk=(   0.09286,   0.05361,   0.00000  )

     Band symmetry, C_s (m)     point group:

     e(  1 -  1) =    -29.32391  eV     1   --> A'             
     e(  2 -  2) =    -28.84977  eV     1   --> A'             
     e(  3 -  3) =    -20.05323  eV     1   --> A'             
     e(  4 -  4) =    -12.75461  eV     1   --> A'             
     e(  5 -  5) =     -9.90863  eV     1   --> A'             
     e(  6 -  6) =     -8.67029  eV     1   --> A'             
     e(  7 -  7) =     -8.28632  eV     1   --> A''            
     e(  8 -  8) =     -7.07319  eV     1   --> A'             
     e(  9 -  9) =     -6.95486  eV     1   --> A''            
     e( 10 - 10) =     -4.49590  eV     1   --> A'             
     e( 11 - 11) =     -4.14758  eV     1   --> A''            
     e( 12 - 12) =     -0.37374  eV     1   --> A'             
     e( 13 - 13) =      3.46486  eV     1   --> A'             
     e( 14 - 14) =      3.85481  eV     1   --> A'             
     e( 15 - 15) =      3.96754  eV     1   --> A''            

 **************************************************************************

 **************************************************************************

                    xk=(   0.08571,   0.04949,   0.00000  )

     Band symmetry, C_s (m)     point group:

     e(  1 -  1) =    -29.33476  eV     1   --> A'             
     e(  2 -  2) =    -28.85749  eV     1   --> A'             
     e(  3 -  3) =    -20.07282  eV     1   --> A'             
     e(  4 -  4) =    -12.76464  eV     1   --> A'             
     e(  5 -  5) =     -9.89844  eV     1   --> A'             
     e(  6 -  6) =     -8.59092  eV     1   --> A'             
     e(  7 -  7) =     -8.25989  eV     1   --> A''            
     e(  8 -  8) =     -7.05158  eV     1   --> A'             
     e(  9 -  9) =     -6.95015  eV     1   --> A''            
     e( 10 - 10) =     -4.42475  eV     1   --> A'             
     e( 11 - 11) =     -4.12133  eV     1   --> A''            
     e( 12 - 12) =     -0.42878  eV     1   --> A'             
     e( 13 - 13) =      3.45720  eV     1   --> A'             
     e( 14 - 14) =      3.81793  eV     1   --> A'             
     e( 15 - 15) =      3.88880  eV     1   --> A''            

 **************************************************************************

 **************************************************************************

                    xk=(   0.07857,   0.04536,   0.00000  )

     Band symmetry, C_s (m)     point group:

     e(  1 -  1) =    -29.34479  eV     1   --> A'             
     e(  2 -  2) =    -28.86465  eV     1   --> A'             
     e(  3 -  3) =    -20.09084  eV     1   --> A'             
     e(  4 -  4) =    -12.77397  eV     1   --> A'             
     e(  5 -  5) =     -9.88927  eV     1   --> A'             
     e(  6 -  6) =     -8.51645  eV     1   --> A'             
     e(  7 -  7) =     -8.23525  eV     1   --> A''            
     e(  8 -  8) =     -7.03151  eV     1   --> A'             
     e(  9 -  9) =     -6.94583  eV     1   --> A''            
     e( 10 - 10) =     -4.35694  eV     1   --> A'             
     e( 11 - 11) =     -4.09644  eV     1   --> A''            
     e( 12 - 12) =     -0.48181  eV     1   --> A'             
     e( 13 - 13) =      3.44996  eV     1   --> A'             
     e( 14 - 14) =      3.78360  eV     1   --> A'             
     e( 15 - 15) =      3.81517  eV     1   --> A''            

 **************************************************************************

 **************************************************************************

                    xk=(   0.07143,   0.04124,   0.00000  )

     Band symmetry, C_s (m)     point group:

     e(  1 -  1) =    -29.35400  eV     1   --> A'             
     e(  2 -  2) =    -28.87123  eV     1   --> A'             
     e(  3 -  3) =    -20.10730  eV     1   --> A'             
     e(  4 -  4) =    -12.78256  eV     1   --> A'             
     e(  5 -  5) =     -9.88106  eV     1   --> A'             
     e(  6 -  6) =     -8.44722  eV     1   --> A'             
     e(  7 -  7) =     -8.21247  eV     1   --> A''            
     e(  8 -  8) =     -7.01303  eV     1   --> A'             
     e(  9 -  9) =     -6.94190  eV     1   --> A''            
     e( 10 - 10) =     -4.29287  eV     1   --> A'             
     e( 11 - 11) =     -4.07308  eV     1   --> A''            
     e( 12 - 12) =     -0.53244  eV     1   --> A'             
     e( 13 - 13) =      3.44315  eV     1   --> A'             
     e( 14 - 14) =      3.74693  eV     1   --> A''            
     e( 15 - 15) =      3.75184  eV     1   --> A'             

 **************************************************************************

 **************************************************************************

                    xk=(   0.06429,   0.03712,   0.00000  )

     Band symmetry, C_s (m)     point group:

     e(  1 -  1) =    -29.36238  eV     1   --> A'             
     e(  2 -  2) =    -28.87721  eV     1   --> A'             
     e(  3 -  3) =    -20.12220  eV     1   --> A'             
     e(  4 -  4) =    -12.79040  eV     1   --> A'             
     e(  5 -  5) =     -9.87376  eV     1   --> A'             
     e(  6 -  6) =     -8.38354  eV     1   --> A'             
     e(  7 -  7) =     -8.19162  eV     1   --> A''            
     e(  8 -  8) =     -6.99619  eV     1   --> A'             
     e(  9 -  9) =     -6.93837  eV     1   --> A''            
     e( 10 - 10) =     -4.23297  eV     1   --> A'             
     e( 11 - 11) =     -4.05139  eV     1   --> A''            
     e( 12 - 12) =     -0.58021  eV     1   --> A'             
     e( 13 - 13) =      3.43680  eV     1   --> A'             
     e( 14 - 14) =      3.68433  eV     1   --> A''            
     e( 15 - 15) =      3.72266  eV     1   --> A'             

 **************************************************************************

 **************************************************************************

                    xk=(   0.05714,   0.03299,   0.00000  )

     Band symmetry, C_s (m)     point group:

     e(  1 -  1) =    -29.36991  eV     1   --> A'             
     e(  2 -  2) =    -28.88260  eV     1   --> A'             
     e(  3 -  3) =    -20.13553  eV     1   --> A'             
     e(  4 -  4) =    -12.79746  eV     1   --> A'             
     e(  5 -  5) =     -9.86731  eV     1   --> A'             
     e(  6 -  6) =     -8.32570  eV     1   --> A'             
     e(  7 -  7) =     -8.17278  eV     1   --> A''            
     e(  8 -  8) =     -6.98104  eV     1   --> A'             
     e(  9 -  9) =     -6.93522  eV     1   --> A''            
     e( 10 - 10) =     -4.17768  eV     1   --> A'             
     e( 11 - 11) =     -4.03151  eV     1   --> A''            
     e( 12 - 12) =     -0.62470  eV     1   --> A'             
     e( 13 - 13) =      3.43096  eV     1   --> A'             
     e( 14 - 14) =      3.62760  eV     1   --> A''            
     e( 15 - 15) =      3.69613  eV     1   --> A'             

 **************************************************************************

 **************************************************************************

                    xk=(   0.05000,   0.02887,   0.00000  )

     Band symmetry, C_s (m)     point group:

     e(  1 -  1) =    -29.37657  eV     1   --> A'             
     e(  2 -  2) =    -28.88737  eV     1   --> A'             
     e(  3 -  3) =    -20.14729  eV     1   --> A'             
     e(  4 -  4) =    -12.80374  eV     1   --> A'             
     e(  5 -  5) =     -9.86169  eV     1   --> A'             
     e(  6 -  6) =     -8.27396  eV     1   --> A'             
     e(  7 -  7) =     -8.15600  eV     1   --> A''            
     e(  8 -  8) =     -6.96763  eV     1   --> A'             
     e(  9 -  9) =     -6.93246  eV     1   --> A''            
     e( 10 - 10) =     -4.12745  eV     1   --> A'             
     e( 11 - 11) =     -4.01360  eV     1   --> A''            
     e( 12 - 12) =     -0.66542  eV     1   --> A'             
     e( 13 - 13) =      3.42568  eV     1   --> A'             
     e( 14 - 14) =      3.57697  eV     1   --> A''            
     e( 15 - 15) =      3.67230  eV     1   --> A'             

 **************************************************************************

 **************************************************************************

                    xk=(   0.04286,   0.02474,   0.00000  )

     Band symmetry, C_s (m)     point group:

     e(  1 -  1) =    -29.38237  eV     1   --> A'             
     e(  2 -  2) =    -28.89153  eV     1   --> A'             
     e(  3 -  3) =    -20.15749  eV     1   --> A'             
     e(  4 -  4) =    -12.80920  eV     1   --> A'             
     e(  5 -  5) =     -9.85687  eV     1   --> A'             
     e(  6 -  6) =     -8.22858  eV     1   --> A'             
     e(  7 -  7) =     -8.14133  eV     1   --> A''            
     e(  8 -  8) =     -6.95596  eV     1   --> A'             
     e(  9 -  9) =     -6.93008  eV     1   --> A''            
     e( 10 - 10) =     -4.08273  eV     1   --> A'             
     e( 11 - 11) =     -3.99778  eV     1   --> A''            
     e( 12 - 12) =     -0.70191  eV     1   --> A'             
     e( 13 - 13) =      3.42100  eV     1   --> A'             
     e( 14 - 14) =      3.53265  eV     1   --> A''            
     e( 15 - 15) =      3.65127  eV     1   --> A'             

 **************************************************************************

 **************************************************************************

                    xk=(   0.03571,   0.02062,   0.00000  )

     Band symmetry, C_s (m)     point group:

     e(  1 -  1) =    -29.38729  eV     1   --> A'             
     e(  2 -  2) =    -28.89505  eV     1   --> A'             
     e(  3 -  3) =    -20.16612  eV     1   --> A'             
     e(  4 -  4) =    -12.81385  eV     1   --> A'             
     e(  5 -  5) =     -9.85283  eV     1   --> A'             
     e(  6 -  6) =     -8.18978  eV     1   --> A'             
     e(  7 -  7) =     -8.12884  eV     1   --> A''            
     e(  8 -  8) =     -6.94607  eV     1   --> A'             
     e(  9 -  9) =     -6.92808  eV     1   --> A''            
     e( 10 - 10) =     -4.04398  eV     1   --> A'             
     e( 11 - 11) =     -3.98417  eV     1   --> A''            
     e( 12 - 12) =     -0.73373  eV     1   --> A'             
     e( 13 - 13) =      3.41698  eV     1   --> A'             
     e( 14 - 14) =      3.49481  eV     1   --> A''            
     e( 15 - 15) =      3.63316  eV     1   --> A'             

 **************************************************************************

 **************************************************************************

                    xk=(   0.02857,   0.01650,   0.00000  )

     Band symmetry, C_s (m)     point group:

     e(  1 -  1) =    -29.39132  eV     1   --> A'             
     e(  2 -  2) =    -28.89795  eV     1   --> A'             
     e(  3 -  3) =    -20.17318  eV     1   --> A'             
     e(  4 -  4) =    -12.81767  eV     1   --> A'             
     e(  5 -  5) =     -9.84954  eV     1   --> A'             
     e(  6 -  6) =     -8.15774  eV     1   --> A'             
     e(  7 -  7) =     -8.11856  eV     1   --> A''            
     e(  8 -  8) =     -6.93797  eV     1   --> A'             
     e(  9 -  9) =     -6.92645  eV     1   --> A''            
     e( 10 - 10) =     -4.01160  eV     1   --> A'             
     e( 11 - 11) =     -3.97288  eV     1   --> A''            
     e( 12 - 12) =     -0.76044  eV     1   --> A'             
     e( 13 - 13) =      3.41365  eV     1   --> A'             
     e( 14 - 14) =      3.46363  eV     1   --> A''            
     e( 15 - 15) =      3.61809  eV     1   --> A'             

 **************************************************************************

 **************************************************************************

                    xk=(   0.02143,   0.01237,   0.00000  )

     Band symmetry, C_s (m)     point group:

     e(  1 -  1) =    -29.39446  eV     1   --> A'             
     e(  2 -  2) =    -28.90020  eV     1   --> A'             
     e(  3 -  3) =    -20.17867  eV     1   --> A'             
     e(  4 -  4) =    -12.82065  eV     1   --> A'             
     e(  5 -  5) =     -9.84700  eV     1   --> A'             
     e(  6 -  6) =     -8.13265  eV     1   --> A'             
     e(  7 -  7) =     -8.11052  eV     1   --> A''            
     e(  8 -  8) =     -6.93167  eV     1   --> A'             
     e(  9 -  9) =     -6.92518  eV     1   --> A''            
     e( 10 - 10) =     -3.98598  eV     1   --> A'             
     e( 11 - 11) =     -3.96400  eV     1   --> A''            
     e( 12 - 12) =     -0.78166  eV     1   --> A'             
     e( 13 - 13) =      3.41104  eV     1   --> A'             
     e( 14 - 14) =      3.43923  eV     1   --> A''            
     e( 15 - 15) =      3.60619  eV     1   --> A'             

 **************************************************************************

 **************************************************************************

                    xk=(   0.01429,   0.00825,   0.00000  )

     Band symmetry, C_s (m)     point group:

     e(  1 -  1) =    -29.39671  eV     1   --> A'             
     e(  2 -  2) =    -28.90181  eV     1   --> A'             
     e(  3 -  3) =    -20.18259  eV     1   --> A'             
     e(  4 -  4) =    -12.82278  eV     1   --> A'             
     e(  5 -  5) =     -9.84519  eV     1   --> A'             
     e(  6 -  6) =     -8.11462  eV     1   --> A'             
     e(  7 -  7) =     -8.10476  eV     1   --> A''            
     e(  8 -  8) =     -6.92717  eV     1   --> A'             
     e(  9 -  9) =     -6.92428  eV     1   --> A''            
     e( 10 - 10) =     -3.96744  eV     1   --> A'             
     e( 11 - 11) =     -3.95761  eV     1   --> A''            
     e( 12 - 12) =     -0.79707  eV     1   --> A'             
     e( 13 - 13) =      3.40917  eV     1   --> A'             
     e( 14 - 14) =      3.42172  eV     1   --> A''            
     e( 15 - 15) =      3.59760  eV     1   --> A'             

 **************************************************************************

 **************************************************************************

                    xk=(   0.00714,   0.00412,   0.00000  )

     Band symmetry, C_s (m)     point group:

     e(  1 -  1) =    -29.39806  eV     1   --> A'             
     e(  2 -  2) =    -28.90278  eV     1   --> A'             
     e(  3 -  3) =    -20.18495  eV     1   --> A'             
     e(  4 -  4) =    -12.82406  eV     1   --> A'             
     e(  5 -  5) =     -9.84411  eV     1   --> A'             
     e(  6 -  6) =     -8.10377  eV     1   --> A'             
     e(  7 -  7) =     -8.10130  eV     1   --> A''            
     e(  8 -  8) =     -6.92446  eV     1   --> A'             
     e(  9 -  9) =     -6.92374  eV     1   --> A''            
     e( 10 - 10) =     -3.95621  eV     1   --> A'             
     e( 11 - 11) =     -3.95375  eV     1   --> A''            
     e( 12 - 12) =     -0.80641  eV     1   --> A'             
     e( 13 - 13) =      3.40804  eV     1   --> A'             
     e( 14 - 14) =      3.41118  eV     1   --> A''            
     e( 15 - 15) =      3.59239  eV     1   --> A'             

 **************************************************************************

 **************************************************************************

                    xk=(   0.00000,   0.00000,   0.00000  )

     point group D_3d (-3m) 
     there are  6 classes
     the character table:

       E     2C3   3C2'  i     2S6   3s_d 
A_1g   1.00  1.00  1.00  1.00  1.00  1.00
A_2g   1.00  1.00 -1.00  1.00  1.00 -1.00
E_g    2.00 -1.00  0.00  2.00 -1.00  0.00
A_1u   1.00  1.00  1.00 -1.00 -1.00 -1.00
A_2u   1.00  1.00 -1.00 -1.00 -1.00  1.00
E_u    2.00 -1.00  0.00 -2.00  1.00  0.00

     the symmetry operations in each class and the name of the first element:

     E        1
                                                                 
     2C3      3    4
                                                                 
     3C2'     2    5    6
                                                                 
     i        7
                                                                 
     2S6      9   10
                                                                 
     3s_d     8   11   12
                                                                 

     Band symmetry, D_3d (-3m)  point group:

     e(  1 -  1) =    -29.39851  eV     1   --> A_1g L_1       
     e(  2 -  2) =    -28.90311  eV     1   --> A_2u L_2'      
     e(  3 -  3) =    -20.18573  eV     1   --> A_1g L_1       
     e(  4 -  4) =    -12.82449  eV     1   --> A_2u L_2'      
     e(  5 -  5) =     -9.84375  eV     1   --> A_1g L_1       
     e(  6 -  7) =     -8.10014  eV     2   --> E_g  L_3       
     e(  8 -  9) =     -6.92356  eV     2   --> E_u  L_3'      
     e( 10 - 11) =     -3.95246  eV     2   --> E_g  L_3       
     e( 12 - 12) =     -0.80955  eV     1   --> A_2u L_2'      
     e( 13 - 14) =      3.40767  eV     2   --> E_u  L_3'      
     e( 15 - 15) =      3.59065  eV     1   --> A_1g L_1       

 **************************************************************************

     BANDS        :   3m 0.73s CPU   3m17.70s WALL


   This run was terminated on:  17:40: 6  24Feb2024            

=------------------------------------------------------------------------------=
   JOB DONE.
=------------------------------------------------------------------------------=
