
     Program DOS v.7.1 starts on 24Feb2024 at 17:40:13 

     This program is part of the open-source Quantum ESPRESSO suite
     for quantum simulation of materials; please cite
         "P. Giannozzi et al., J. Phys.:Condens. Matter 21 395502 (2009);
         "P. Giannozzi et al., J. Phys.:Condens. Matter 29 465901 (2017);
         "P. Giannozzi et al., J. Chem. Phys. 152 154105 (2020);
          URL http://www.quantum-espresso.org", 
     in publications or presentations arising from this work. More details at
     http://www.quantum-espresso.org/quote

     Parallel version (MPI), running on     8 processors

     MPI processes distributed on     1 nodes
     R & G space division:  proc/nbgrp/npool/nimage =       8
     240916 MiB available memory on the printing compute node when the environment starts


     Reading xml data from directory:

     ../tmp/fgc.save/

     IMPORTANT: XC functional enforced from input :
     Exchange-correlation= PBE
                           (   1   4   3   4   0   0   0)
     Any further DFT definition will be discarded
     Please, verify this is what you really want


     Parallelization info
     --------------------
     sticks:   dense  smooth     PW     G-vecs:    dense   smooth      PW
     Min         416     416    114               138498   138498   19368
     Max         417     417    115               138521   138521   19383
     Sum        3331    3331    913              1108055  1108055  154987

     Using Slab Decomposition


     negative rho (up, down):  5.457E-06 0.000E+00

     Gaussian broadening (read from file): ngauss,degauss=  -1    0.001000


     DOS          :      1.80s CPU      2.01s WALL


   This run was terminated on:  17:40:15  24Feb2024            

=------------------------------------------------------------------------------=
   JOB DONE.
=------------------------------------------------------------------------------=
