
     Program PWSCF v.7.1 starts on 24Feb2024 at 16:31:29 

     This program is part of the open-source Quantum ESPRESSO suite
     for quantum simulation of materials; please cite
         "P. Giannozzi et al., J. Phys.:Condens. Matter 21 395502 (2009);
         "P. Giannozzi et al., J. Phys.:Condens. Matter 29 465901 (2017);
         "P. Giannozzi et al., J. Chem. Phys. 152 154105 (2020);
          URL http://www.quantum-espresso.org", 
     in publications or presentations arising from this work. More details at
     http://www.quantum-espresso.org/quote

     Parallel version (MPI), running on    24 processors

     MPI processes distributed on     1 nodes
     250823 MiB available memory on the printing compute node when the environment starts

     Reading input from nscf.in

     Current dimensions of program PWSCF are:
     Max number of different atomic species (ntypx) = 10
     Max number of k-points (npk) =  40000
     Max angular momentum in pseudopotentials (lmaxx) =  4

     Atomic positions and unit cell read from directory:
     ../tmp/fgc.save/
     Atomic positions from file used, from input discarded


     K-points division:     npool     =       6
     R & G space division:  proc/nbgrp/npool/nimage =       4
     Subspace diagonalization in iterative solution of the eigenvalue problem:
     a serial algorithm will be used


     Parallelization info
     --------------------
     sticks:   dense  smooth     PW     G-vecs:    dense   smooth      PW
     Min         832     832    228               277002   277002   38740
     Max         833     833    229               277019   277019   38753
     Sum        3331    3331    913              1108055  1108055  154987

     Using Slab Decomposition



     bravais-lattice index     =            4
     lattice parameter (alat)  =       4.9233  a.u.
     unit-cell volume          =     733.8532 (a.u.)^3
     number of atoms/cell      =            4
     number of atomic types    =            2
     number of electrons       =        22.00
     number of Kohn-Sham states=           15
     kinetic-energy cutoff     =     500.0000  Ry
     charge density cutoff     =    2000.0000  Ry
     Exchange-correlation=  SLA  PW   PBX  PBC
                           (   1   4   3   4   0   0   0)

     celldm(1)=   4.923251  celldm(2)=   0.000000  celldm(3)=   7.101051
     celldm(4)=   0.000000  celldm(5)=   0.000000  celldm(6)=   0.000000

     crystal axes: (cart. coord. in units of alat)
               a(1) = (   1.000000   0.000000   0.000000 )  
               a(2) = (  -0.500000   0.866025   0.000000 )  
               a(3) = (   0.000000   0.000000   7.101051 )  

     reciprocal axes: (cart. coord. in units 2 pi/alat)
               b(1) = (  1.000000  0.577350 -0.000000 )  
               b(2) = (  0.000000  1.154701  0.000000 )  
               b(3) = (  0.000000 -0.000000  0.140824 )  


     PseudoPot. # 1 for C  read from file:
     ../pseudo/c_pbe_v1.2.uspp.F.UPF
     MD5 check sum: d1aef80898a10debaa0f26306b886e00
     Pseudo is Ultrasoft + core correction, Zval =  4.0
     Generated by new atomic code, or converted to UPF format
     Using radial grid of  721 points,  4 beta functions with: 
                l(1) =   0
                l(2) =   0
                l(3) =   1
                l(4) =   1
     Q(r) pseudized with  8 coefficients,  rinner =    1.100   1.100   1.100


     PseudoPot. # 2 for F  read from file:
     ../pseudo/f_pbe_v1.4.uspp.F.UPF
     MD5 check sum: 4c38b6a325caf53ec0e86aed9459de46
     Pseudo is Ultrasoft, Zval =  7.0
     Generated by new atomic code, or converted to UPF format
     Using radial grid of  799 points,  4 beta functions with: 
                l(1) =   0
                l(2) =   0
                l(3) =   1
                l(4) =   1
     Q(r) pseudized with  8 coefficients,  rinner =    0.950   0.950   0.950


     atomic species   valence    mass     pseudopotential
        C              4.00    12.01070     C ( 1.00)
        F              7.00    18.99840     F ( 1.00)

     12 Sym. Ops., with inversion, found ( 8 have fractional translation)


                                    s                        frac. trans.

      isym =  1     identity                                     

 cryst.   s( 1) = (     1          0          0      )
                  (     0          1          0      )
                  (     0          0          1      )

 cart.    s( 1) = (  1.0000000  0.0000000  0.0000000 )
                  (  0.0000000  1.0000000  0.0000000 )
                  (  0.0000000  0.0000000  1.0000000 )


      isym =  2     180 deg rotation - cart. axis [1,0,0]        

 cryst.   s( 2) = (     1          0          0      )
                  (    -1         -1          0      )
                  (     0          0         -1      )

 cart.    s( 2) = (  1.0000000  0.0000000  0.0000000 )
                  (  0.0000000 -1.0000000  0.0000000 )
                  (  0.0000000  0.0000000 -1.0000000 )


      isym =  3     120 deg rotation - cryst. axis [0,0,1]       

 cryst.   s( 3) = (     0          1          0      )    f =( -0.5000000 )
                  (    -1         -1          0      )       ( -0.5000000 )
                  (     0          0          1      )       (  0.0000000 )

 cart.    s( 3) = ( -0.5000000 -0.8660254  0.0000000 )    f =( -0.2500000 )
                  (  0.8660254 -0.5000000  0.0000000 )       ( -0.4330127 )
                  (  0.0000000  0.0000000  1.0000000 )       (  0.0000000 )


      isym =  4     120 deg rotation - cryst. axis [0,0,-1]      

 cryst.   s( 4) = (    -1         -1          0      )    f =(  0.0000000 )
                  (     1          0          0      )       ( -0.5000000 )
                  (     0          0          1      )       (  0.0000000 )

 cart.    s( 4) = ( -0.5000000  0.8660254  0.0000000 )    f =(  0.2500000 )
                  ( -0.8660254 -0.5000000  0.0000000 )       ( -0.4330127 )
                  (  0.0000000  0.0000000  1.0000000 )       (  0.0000000 )


      isym =  5     180 deg rotation - cryst. axis [0,1,0]       

 cryst.   s( 5) = (    -1         -1          0      )    f =(  0.0000000 )
                  (     0          1          0      )       ( -0.5000000 )
                  (     0          0         -1      )       (  0.0000000 )

 cart.    s( 5) = ( -0.5000000 -0.8660254  0.0000000 )    f =(  0.2500000 )
                  ( -0.8660254  0.5000000  0.0000000 )       ( -0.4330127 )
                  (  0.0000000  0.0000000 -1.0000000 )       (  0.0000000 )


      isym =  6     180 deg rotation - cryst. axis [1,1,0]       

 cryst.   s( 6) = (     0          1          0      )    f =(  0.5000000 )
                  (     1          0          0      )       ( -0.5000000 )
                  (     0          0         -1      )       (  0.0000000 )

 cart.    s( 6) = ( -0.5000000  0.8660254  0.0000000 )    f =(  0.7500000 )
                  (  0.8660254  0.5000000  0.0000000 )       ( -0.4330127 )
                  (  0.0000000  0.0000000 -1.0000000 )       (  0.0000000 )


      isym =  7     inversion                                    

 cryst.   s( 7) = (    -1          0          0      )
                  (     0         -1          0      )
                  (     0          0         -1      )

 cart.    s( 7) = ( -1.0000000  0.0000000  0.0000000 )
                  (  0.0000000 -1.0000000  0.0000000 )
                  (  0.0000000  0.0000000 -1.0000000 )


      isym =  8     inv. 180 deg rotation - cart. axis [1,0,0]   

 cryst.   s( 8) = (    -1          0          0      )
                  (     1          1          0      )
                  (     0          0          1      )

 cart.    s( 8) = ( -1.0000000 -0.0000000  0.0000000 )
                  (  0.0000000  1.0000000  0.0000000 )
                  (  0.0000000  0.0000000  1.0000000 )


      isym =  9     inv. 120 deg rotation - cryst. axis [0,0,1]  

 cryst.   s( 9) = (     0         -1          0      )    f =(  0.5000000 )
                  (     1          1          0      )       ( -0.5000000 )
                  (     0          0         -1      )       (  0.0000000 )

 cart.    s( 9) = (  0.5000000  0.8660254  0.0000000 )    f =(  0.7500000 )
                  ( -0.8660254  0.5000000  0.0000000 )       ( -0.4330127 )
                  (  0.0000000  0.0000000 -1.0000000 )       (  0.0000000 )


      isym = 10     inv. 120 deg rotation - cryst. axis [0,0,-1] 

 cryst.   s(10) = (     1          1          0      )    f =(  0.0000000 )
                  (    -1          0          0      )       ( -0.5000000 )
                  (     0          0         -1      )       (  0.0000000 )

 cart.    s(10) = (  0.5000000 -0.8660254  0.0000000 )    f =(  0.2500000 )
                  (  0.8660254  0.5000000  0.0000000 )       ( -0.4330127 )
                  (  0.0000000  0.0000000 -1.0000000 )       (  0.0000000 )


      isym = 11     inv. 180 deg rotation - cryst. axis [0,1,0]  

 cryst.   s(11) = (     1          1          0      )    f =(  0.0000000 )
                  (     0         -1          0      )       ( -0.5000000 )
                  (     0          0          1      )       (  0.0000000 )

 cart.    s(11) = (  0.5000000  0.8660254  0.0000000 )    f =(  0.2500000 )
                  (  0.8660254 -0.5000000  0.0000000 )       ( -0.4330127 )
                  (  0.0000000  0.0000000  1.0000000 )       (  0.0000000 )


      isym = 12     inv. 180 deg rotation - cryst. axis [1,1,0]  

 cryst.   s(12) = (     0         -1          0      )    f =( -0.5000000 )
                  (    -1          0          0      )       ( -0.5000000 )
                  (     0          0          1      )       (  0.0000000 )

 cart.    s(12) = (  0.5000000 -0.8660254  0.0000000 )    f =( -0.2500000 )
                  ( -0.8660254 -0.5000000  0.0000000 )       ( -0.4330127 )
                  (  0.0000000  0.0000000  1.0000000 )       (  0.0000000 )


     point group D_3d (-3m) 
     there are  6 classes
     the character table:

       E     2C3   3C2'  i     2S6   3s_d 
A_1g   1.00  1.00  1.00  1.00  1.00  1.00
A_2g   1.00  1.00 -1.00  1.00  1.00 -1.00
E_g    2.00 -1.00  0.00  2.00 -1.00  0.00
A_1u   1.00  1.00  1.00 -1.00 -1.00 -1.00
A_2u   1.00  1.00 -1.00 -1.00 -1.00  1.00
E_u    2.00 -1.00  0.00 -2.00  1.00  0.00

     the symmetry operations in each class and the name of the first element:

     E        1
          identity                                               
     2C3      3    4
          120 deg rotation - cryst. axis [0,0,1]                 
     3C2'     2    5    6
          180 deg rotation - cart. axis [1,0,0]                  
     i        7
          inversion                                              
     2S6      9   10
          inv. 120 deg rotation - cryst. axis [0,0,1]            
     3s_d     8   11   12
          inv. 180 deg rotation - cart. axis [1,0,0]             

   Cartesian axes

     site n.     atom                  positions (alat units)
         1           C   tau(   1) = (   0.5000000   0.5773503  -0.0938425  )
         2           C   tau(   2) = (  -0.0000000   0.2886751   0.0938425  )
         3           F   tau(   3) = (   0.5000000   0.5773503  -0.6234719  )
         4           F   tau(   4) = (  -0.0000000   0.2886751   0.6234719  )

   Crystallographic axes

     site n.     atom                  positions (cryst. coord.)
         1           C   tau(   1) = (  0.8333333  0.6666667 -0.0132153  )
         2           C   tau(   2) = (  0.1666667  0.3333333  0.0132153  )
         3           F   tau(   3) = (  0.8333333  0.6666667 -0.0877999  )
         4           F   tau(   4) = (  0.1666667  0.3333333  0.0877999  )

     number of k points=   181  Marzari-Vanderbilt smearing, width (Ry)=  0.0010
                       cart. coord. in units 2pi/alat
        k(    1) = (   0.0000000   0.0000000   0.0000000), wk =   0.0110497
        k(    2) = (   0.0047619   0.0082479   0.0000000), wk =   0.0110497
        k(    3) = (   0.0095238   0.0164957   0.0000000), wk =   0.0110497
        k(    4) = (   0.0142857   0.0247436   0.0000000), wk =   0.0110497
        k(    5) = (   0.0190476   0.0329914   0.0000000), wk =   0.0110497
        k(    6) = (   0.0238095   0.0412393   0.0000000), wk =   0.0110497
        k(    7) = (   0.0285714   0.0494872   0.0000000), wk =   0.0110497
        k(    8) = (   0.0333333   0.0577350   0.0000000), wk =   0.0110497
        k(    9) = (   0.0380952   0.0659829   0.0000000), wk =   0.0110497
        k(   10) = (   0.0428571   0.0742307   0.0000000), wk =   0.0110497
        k(   11) = (   0.0476190   0.0824786   0.0000000), wk =   0.0110497
        k(   12) = (   0.0523810   0.0907265   0.0000000), wk =   0.0110497
        k(   13) = (   0.0571429   0.0989743   0.0000000), wk =   0.0110497
        k(   14) = (   0.0619048   0.1072222   0.0000000), wk =   0.0110497
        k(   15) = (   0.0666667   0.1154701   0.0000000), wk =   0.0110497
        k(   16) = (   0.0714286   0.1237179   0.0000000), wk =   0.0110497
        k(   17) = (   0.0761905   0.1319658   0.0000000), wk =   0.0110497
        k(   18) = (   0.0809524   0.1402136   0.0000000), wk =   0.0110497
        k(   19) = (   0.0857143   0.1484615   0.0000000), wk =   0.0110497
        k(   20) = (   0.0904762   0.1567094   0.0000000), wk =   0.0110497
        k(   21) = (   0.0952381   0.1649572   0.0000000), wk =   0.0110497
        k(   22) = (   0.1000000   0.1732051   0.0000000), wk =   0.0110497
        k(   23) = (   0.1047619   0.1814529   0.0000000), wk =   0.0110497
        k(   24) = (   0.1095238   0.1897008   0.0000000), wk =   0.0110497
        k(   25) = (   0.1142857   0.1979487   0.0000000), wk =   0.0110497
        k(   26) = (   0.1190476   0.2061965   0.0000000), wk =   0.0110497
        k(   27) = (   0.1238095   0.2144444   0.0000000), wk =   0.0110497
        k(   28) = (   0.1285714   0.2226922   0.0000000), wk =   0.0110497
        k(   29) = (   0.1333333   0.2309401   0.0000000), wk =   0.0110497
        k(   30) = (   0.1380952   0.2391880   0.0000000), wk =   0.0110497
        k(   31) = (   0.1428571   0.2474358   0.0000000), wk =   0.0110497
        k(   32) = (   0.1476190   0.2556837   0.0000000), wk =   0.0110497
        k(   33) = (   0.1523810   0.2639316   0.0000000), wk =   0.0110497
        k(   34) = (   0.1571429   0.2721794   0.0000000), wk =   0.0110497
        k(   35) = (   0.1619048   0.2804273   0.0000000), wk =   0.0110497
        k(   36) = (   0.1666667   0.2886751   0.0000000), wk =   0.0110497
        k(   37) = (   0.1714286   0.2969230   0.0000000), wk =   0.0110497
        k(   38) = (   0.1761905   0.3051709   0.0000000), wk =   0.0110497
        k(   39) = (   0.1809524   0.3134187   0.0000000), wk =   0.0110497
        k(   40) = (   0.1857143   0.3216666   0.0000000), wk =   0.0110497
        k(   41) = (   0.1904762   0.3299144   0.0000000), wk =   0.0110497
        k(   42) = (   0.1952381   0.3381623   0.0000000), wk =   0.0110497
        k(   43) = (   0.2000000   0.3464102   0.0000000), wk =   0.0110497
        k(   44) = (   0.2047619   0.3546580   0.0000000), wk =   0.0110497
        k(   45) = (   0.2095238   0.3629059   0.0000000), wk =   0.0110497
        k(   46) = (   0.2142857   0.3711537   0.0000000), wk =   0.0110497
        k(   47) = (   0.2190476   0.3794016   0.0000000), wk =   0.0110497
        k(   48) = (   0.2238095   0.3876495   0.0000000), wk =   0.0110497
        k(   49) = (   0.2285714   0.3958973   0.0000000), wk =   0.0110497
        k(   50) = (   0.2333333   0.4041452   0.0000000), wk =   0.0110497
        k(   51) = (   0.2380952   0.4123930   0.0000000), wk =   0.0110497
        k(   52) = (   0.2428571   0.4206409   0.0000000), wk =   0.0110497
        k(   53) = (   0.2476190   0.4288888   0.0000000), wk =   0.0110497
        k(   54) = (   0.2523810   0.4371366   0.0000000), wk =   0.0110497
        k(   55) = (   0.2571429   0.4453845   0.0000000), wk =   0.0110497
        k(   56) = (   0.2619048   0.4536324   0.0000000), wk =   0.0110497
        k(   57) = (   0.2666667   0.4618802   0.0000000), wk =   0.0110497
        k(   58) = (   0.2714286   0.4701281   0.0000000), wk =   0.0110497
        k(   59) = (   0.2761905   0.4783759   0.0000000), wk =   0.0110497
        k(   60) = (   0.2809524   0.4866238   0.0000000), wk =   0.0110497
        k(   61) = (   0.2857143   0.4948717   0.0000000), wk =   0.0110497
        k(   62) = (   0.2904762   0.5031195   0.0000000), wk =   0.0110497
        k(   63) = (   0.2952381   0.5113674   0.0000000), wk =   0.0110497
        k(   64) = (   0.3000000   0.5196152   0.0000000), wk =   0.0110497
        k(   65) = (   0.3047619   0.5278631   0.0000000), wk =   0.0110497
        k(   66) = (   0.3095238   0.5361110   0.0000000), wk =   0.0110497
        k(   67) = (   0.3142857   0.5443588   0.0000000), wk =   0.0110497
        k(   68) = (   0.3190476   0.5526067   0.0000000), wk =   0.0110497
        k(   69) = (   0.3238095   0.5608545   0.0000000), wk =   0.0110497
        k(   70) = (   0.3285714   0.5691024   0.0000000), wk =   0.0110497
        k(   71) = (   0.3333333   0.5773503   0.0000000), wk =   0.0110497
        k(   72) = (   0.3375000   0.5701334   0.0000000), wk =   0.0110497
        k(   73) = (   0.3416667   0.5629165   0.0000000), wk =   0.0110497
        k(   74) = (   0.3458333   0.5556996   0.0000000), wk =   0.0110497
        k(   75) = (   0.3500000   0.5484828   0.0000000), wk =   0.0110497
        k(   76) = (   0.3541667   0.5412659   0.0000000), wk =   0.0110497
        k(   77) = (   0.3583333   0.5340490   0.0000000), wk =   0.0110497
        k(   78) = (   0.3625000   0.5268321   0.0000000), wk =   0.0110497
        k(   79) = (   0.3666667   0.5196152   0.0000000), wk =   0.0110497
        k(   80) = (   0.3708333   0.5123984   0.0000000), wk =   0.0110497
        k(   81) = (   0.3750000   0.5051815   0.0000000), wk =   0.0110497
        k(   82) = (   0.3791667   0.4979646   0.0000000), wk =   0.0110497
        k(   83) = (   0.3833333   0.4907477   0.0000000), wk =   0.0110497
        k(   84) = (   0.3875000   0.4835309   0.0000000), wk =   0.0110497
        k(   85) = (   0.3916667   0.4763140   0.0000000), wk =   0.0110497
        k(   86) = (   0.3958333   0.4690971   0.0000000), wk =   0.0110497
        k(   87) = (   0.4000000   0.4618802   0.0000000), wk =   0.0110497
        k(   88) = (   0.4041667   0.4546633   0.0000000), wk =   0.0110497
        k(   89) = (   0.4083333   0.4474465   0.0000000), wk =   0.0110497
        k(   90) = (   0.4125000   0.4402296   0.0000000), wk =   0.0110497
        k(   91) = (   0.4166667   0.4330127   0.0000000), wk =   0.0110497
        k(   92) = (   0.4208333   0.4257958   0.0000000), wk =   0.0110497
        k(   93) = (   0.4250000   0.4185789   0.0000000), wk =   0.0110497
        k(   94) = (   0.4291667   0.4113621   0.0000000), wk =   0.0110497
        k(   95) = (   0.4333333   0.4041452   0.0000000), wk =   0.0110497
        k(   96) = (   0.4375000   0.3969283   0.0000000), wk =   0.0110497
        k(   97) = (   0.4416667   0.3897114   0.0000000), wk =   0.0110497
        k(   98) = (   0.4458333   0.3824946   0.0000000), wk =   0.0110497
        k(   99) = (   0.4500000   0.3752777   0.0000000), wk =   0.0110497
        k(  100) = (   0.4541667   0.3680608   0.0000000), wk =   0.0110497
        k(  101) = (   0.4583333   0.3608439   0.0000000), wk =   0.0110497
        k(  102) = (   0.4625000   0.3536270   0.0000000), wk =   0.0110497
        k(  103) = (   0.4666667   0.3464102   0.0000000), wk =   0.0110497
        k(  104) = (   0.4708333   0.3391933   0.0000000), wk =   0.0110497
        k(  105) = (   0.4750000   0.3319764   0.0000000), wk =   0.0110497
        k(  106) = (   0.4791667   0.3247595   0.0000000), wk =   0.0110497
        k(  107) = (   0.4833333   0.3175426   0.0000000), wk =   0.0110497
        k(  108) = (   0.4875000   0.3103258   0.0000000), wk =   0.0110497
        k(  109) = (   0.4916667   0.3031089   0.0000000), wk =   0.0110497
        k(  110) = (   0.4958333   0.2958920   0.0000000), wk =   0.0110497
        k(  111) = (   0.5000000   0.2886751   0.0000000), wk =   0.0110497
        k(  112) = (   0.4928571   0.2845512   0.0000000), wk =   0.0110497
        k(  113) = (   0.4857143   0.2804273   0.0000000), wk =   0.0110497
        k(  114) = (   0.4785714   0.2763033   0.0000000), wk =   0.0110497
        k(  115) = (   0.4714286   0.2721794   0.0000000), wk =   0.0110497
        k(  116) = (   0.4642857   0.2680555   0.0000000), wk =   0.0110497
        k(  117) = (   0.4571429   0.2639316   0.0000000), wk =   0.0110497
        k(  118) = (   0.4500000   0.2598076   0.0000000), wk =   0.0110497
        k(  119) = (   0.4428571   0.2556837   0.0000000), wk =   0.0110497
        k(  120) = (   0.4357143   0.2515598   0.0000000), wk =   0.0110497
        k(  121) = (   0.4285714   0.2474358   0.0000000), wk =   0.0110497
        k(  122) = (   0.4214286   0.2433119   0.0000000), wk =   0.0110497
        k(  123) = (   0.4142857   0.2391880   0.0000000), wk =   0.0110497
        k(  124) = (   0.4071429   0.2350640   0.0000000), wk =   0.0110497
        k(  125) = (   0.4000000   0.2309401   0.0000000), wk =   0.0110497
        k(  126) = (   0.3928571   0.2268162   0.0000000), wk =   0.0110497
        k(  127) = (   0.3857143   0.2226922   0.0000000), wk =   0.0110497
        k(  128) = (   0.3785714   0.2185683   0.0000000), wk =   0.0110497
        k(  129) = (   0.3714286   0.2144444   0.0000000), wk =   0.0110497
        k(  130) = (   0.3642857   0.2103205   0.0000000), wk =   0.0110497
        k(  131) = (   0.3571429   0.2061965   0.0000000), wk =   0.0110497
        k(  132) = (   0.3500000   0.2020726   0.0000000), wk =   0.0110497
        k(  133) = (   0.3428571   0.1979487   0.0000000), wk =   0.0110497
        k(  134) = (   0.3357143   0.1938247   0.0000000), wk =   0.0110497
        k(  135) = (   0.3285714   0.1897008   0.0000000), wk =   0.0110497
        k(  136) = (   0.3214286   0.1855769   0.0000000), wk =   0.0110497
        k(  137) = (   0.3142857   0.1814529   0.0000000), wk =   0.0110497
        k(  138) = (   0.3071429   0.1773290   0.0000000), wk =   0.0110497
        k(  139) = (   0.3000000   0.1732051   0.0000000), wk =   0.0110497
        k(  140) = (   0.2928571   0.1690812   0.0000000), wk =   0.0110497
        k(  141) = (   0.2857143   0.1649572   0.0000000), wk =   0.0110497
        k(  142) = (   0.2785714   0.1608333   0.0000000), wk =   0.0110497
        k(  143) = (   0.2714286   0.1567094   0.0000000), wk =   0.0110497
        k(  144) = (   0.2642857   0.1525854   0.0000000), wk =   0.0110497
        k(  145) = (   0.2571429   0.1484615   0.0000000), wk =   0.0110497
        k(  146) = (   0.2500000   0.1443376   0.0000000), wk =   0.0110497
        k(  147) = (   0.2428571   0.1402136   0.0000000), wk =   0.0110497
        k(  148) = (   0.2357143   0.1360897   0.0000000), wk =   0.0110497
        k(  149) = (   0.2285714   0.1319658   0.0000000), wk =   0.0110497
        k(  150) = (   0.2214286   0.1278418   0.0000000), wk =   0.0110497
        k(  151) = (   0.2142857   0.1237179   0.0000000), wk =   0.0110497
        k(  152) = (   0.2071429   0.1195940   0.0000000), wk =   0.0110497
        k(  153) = (   0.2000000   0.1154701   0.0000000), wk =   0.0110497
        k(  154) = (   0.1928571   0.1113461   0.0000000), wk =   0.0110497
        k(  155) = (   0.1857143   0.1072222   0.0000000), wk =   0.0110497
        k(  156) = (   0.1785714   0.1030983   0.0000000), wk =   0.0110497
        k(  157) = (   0.1714286   0.0989743   0.0000000), wk =   0.0110497
        k(  158) = (   0.1642857   0.0948504   0.0000000), wk =   0.0110497
        k(  159) = (   0.1571429   0.0907265   0.0000000), wk =   0.0110497
        k(  160) = (   0.1500000   0.0866025   0.0000000), wk =   0.0110497
        k(  161) = (   0.1428571   0.0824786   0.0000000), wk =   0.0110497
        k(  162) = (   0.1357143   0.0783547   0.0000000), wk =   0.0110497
        k(  163) = (   0.1285714   0.0742307   0.0000000), wk =   0.0110497
        k(  164) = (   0.1214286   0.0701068   0.0000000), wk =   0.0110497
        k(  165) = (   0.1142857   0.0659829   0.0000000), wk =   0.0110497
        k(  166) = (   0.1071429   0.0618590   0.0000000), wk =   0.0110497
        k(  167) = (   0.1000000   0.0577350   0.0000000), wk =   0.0110497
        k(  168) = (   0.0928571   0.0536111   0.0000000), wk =   0.0110497
        k(  169) = (   0.0857143   0.0494872   0.0000000), wk =   0.0110497
        k(  170) = (   0.0785714   0.0453632   0.0000000), wk =   0.0110497
        k(  171) = (   0.0714286   0.0412393   0.0000000), wk =   0.0110497
        k(  172) = (   0.0642857   0.0371154   0.0000000), wk =   0.0110497
        k(  173) = (   0.0571429   0.0329914   0.0000000), wk =   0.0110497
        k(  174) = (   0.0500000   0.0288675   0.0000000), wk =   0.0110497
        k(  175) = (   0.0428571   0.0247436   0.0000000), wk =   0.0110497
        k(  176) = (   0.0357143   0.0206197   0.0000000), wk =   0.0110497
        k(  177) = (   0.0285714   0.0164957   0.0000000), wk =   0.0110497
        k(  178) = (   0.0214286   0.0123718   0.0000000), wk =   0.0110497
        k(  179) = (   0.0142857   0.0082479   0.0000000), wk =   0.0110497
        k(  180) = (   0.0071429   0.0041239   0.0000000), wk =   0.0110497
        k(  181) = (   0.0000000   0.0000000   0.0000000), wk =   0.0110497

                       cryst. coord.
        k(    1) = (   0.0000000   0.0000000   0.0000000), wk =   0.0110497
        k(    2) = (   0.0047619   0.0047619   0.0000000), wk =   0.0110497
        k(    3) = (   0.0095238   0.0095238   0.0000000), wk =   0.0110497
        k(    4) = (   0.0142857   0.0142857   0.0000000), wk =   0.0110497
        k(    5) = (   0.0190476   0.0190476   0.0000000), wk =   0.0110497
        k(    6) = (   0.0238095   0.0238095   0.0000000), wk =   0.0110497
        k(    7) = (   0.0285714   0.0285714   0.0000000), wk =   0.0110497
        k(    8) = (   0.0333333   0.0333333   0.0000000), wk =   0.0110497
        k(    9) = (   0.0380952   0.0380952   0.0000000), wk =   0.0110497
        k(   10) = (   0.0428571   0.0428571   0.0000000), wk =   0.0110497
        k(   11) = (   0.0476190   0.0476190   0.0000000), wk =   0.0110497
        k(   12) = (   0.0523810   0.0523810   0.0000000), wk =   0.0110497
        k(   13) = (   0.0571429   0.0571429   0.0000000), wk =   0.0110497
        k(   14) = (   0.0619048   0.0619048   0.0000000), wk =   0.0110497
        k(   15) = (   0.0666667   0.0666667   0.0000000), wk =   0.0110497
        k(   16) = (   0.0714286   0.0714286   0.0000000), wk =   0.0110497
        k(   17) = (   0.0761905   0.0761905   0.0000000), wk =   0.0110497
        k(   18) = (   0.0809524   0.0809524   0.0000000), wk =   0.0110497
        k(   19) = (   0.0857143   0.0857143   0.0000000), wk =   0.0110497
        k(   20) = (   0.0904762   0.0904762   0.0000000), wk =   0.0110497
        k(   21) = (   0.0952381   0.0952381   0.0000000), wk =   0.0110497
        k(   22) = (   0.1000000   0.1000000   0.0000000), wk =   0.0110497
        k(   23) = (   0.1047619   0.1047619   0.0000000), wk =   0.0110497
        k(   24) = (   0.1095238   0.1095238   0.0000000), wk =   0.0110497
        k(   25) = (   0.1142857   0.1142857   0.0000000), wk =   0.0110497
        k(   26) = (   0.1190476   0.1190476   0.0000000), wk =   0.0110497
        k(   27) = (   0.1238095   0.1238095   0.0000000), wk =   0.0110497
        k(   28) = (   0.1285714   0.1285714   0.0000000), wk =   0.0110497
        k(   29) = (   0.1333333   0.1333333   0.0000000), wk =   0.0110497
        k(   30) = (   0.1380952   0.1380952   0.0000000), wk =   0.0110497
        k(   31) = (   0.1428571   0.1428571   0.0000000), wk =   0.0110497
        k(   32) = (   0.1476190   0.1476190   0.0000000), wk =   0.0110497
        k(   33) = (   0.1523810   0.1523810   0.0000000), wk =   0.0110497
        k(   34) = (   0.1571429   0.1571429   0.0000000), wk =   0.0110497
        k(   35) = (   0.1619048   0.1619048   0.0000000), wk =   0.0110497
        k(   36) = (   0.1666667   0.1666667   0.0000000), wk =   0.0110497
        k(   37) = (   0.1714286   0.1714286   0.0000000), wk =   0.0110497
        k(   38) = (   0.1761905   0.1761905   0.0000000), wk =   0.0110497
        k(   39) = (   0.1809524   0.1809524   0.0000000), wk =   0.0110497
        k(   40) = (   0.1857143   0.1857143   0.0000000), wk =   0.0110497
        k(   41) = (   0.1904762   0.1904762   0.0000000), wk =   0.0110497
        k(   42) = (   0.1952381   0.1952381   0.0000000), wk =   0.0110497
        k(   43) = (   0.2000000   0.2000000   0.0000000), wk =   0.0110497
        k(   44) = (   0.2047619   0.2047619   0.0000000), wk =   0.0110497
        k(   45) = (   0.2095238   0.2095238   0.0000000), wk =   0.0110497
        k(   46) = (   0.2142857   0.2142857   0.0000000), wk =   0.0110497
        k(   47) = (   0.2190476   0.2190476   0.0000000), wk =   0.0110497
        k(   48) = (   0.2238095   0.2238095   0.0000000), wk =   0.0110497
        k(   49) = (   0.2285714   0.2285714   0.0000000), wk =   0.0110497
        k(   50) = (   0.2333333   0.2333333   0.0000000), wk =   0.0110497
        k(   51) = (   0.2380952   0.2380952   0.0000000), wk =   0.0110497
        k(   52) = (   0.2428571   0.2428571   0.0000000), wk =   0.0110497
        k(   53) = (   0.2476190   0.2476190   0.0000000), wk =   0.0110497
        k(   54) = (   0.2523810   0.2523810   0.0000000), wk =   0.0110497
        k(   55) = (   0.2571429   0.2571429   0.0000000), wk =   0.0110497
        k(   56) = (   0.2619048   0.2619048   0.0000000), wk =   0.0110497
        k(   57) = (   0.2666667   0.2666667   0.0000000), wk =   0.0110497
        k(   58) = (   0.2714286   0.2714286   0.0000000), wk =   0.0110497
        k(   59) = (   0.2761905   0.2761905   0.0000000), wk =   0.0110497
        k(   60) = (   0.2809524   0.2809524   0.0000000), wk =   0.0110497
        k(   61) = (   0.2857143   0.2857143   0.0000000), wk =   0.0110497
        k(   62) = (   0.2904762   0.2904762   0.0000000), wk =   0.0110497
        k(   63) = (   0.2952381   0.2952381   0.0000000), wk =   0.0110497
        k(   64) = (   0.3000000   0.3000000   0.0000000), wk =   0.0110497
        k(   65) = (   0.3047619   0.3047619   0.0000000), wk =   0.0110497
        k(   66) = (   0.3095238   0.3095238   0.0000000), wk =   0.0110497
        k(   67) = (   0.3142857   0.3142857   0.0000000), wk =   0.0110497
        k(   68) = (   0.3190476   0.3190476   0.0000000), wk =   0.0110497
        k(   69) = (   0.3238095   0.3238095   0.0000000), wk =   0.0110497
        k(   70) = (   0.3285714   0.3285714   0.0000000), wk =   0.0110497
        k(   71) = (   0.3333333   0.3333333   0.0000000), wk =   0.0110497
        k(   72) = (   0.3375000   0.3250000   0.0000000), wk =   0.0110497
        k(   73) = (   0.3416667   0.3166667   0.0000000), wk =   0.0110497
        k(   74) = (   0.3458333   0.3083333   0.0000000), wk =   0.0110497
        k(   75) = (   0.3500000   0.3000000   0.0000000), wk =   0.0110497
        k(   76) = (   0.3541667   0.2916667   0.0000000), wk =   0.0110497
        k(   77) = (   0.3583333   0.2833333   0.0000000), wk =   0.0110497
        k(   78) = (   0.3625000   0.2750000   0.0000000), wk =   0.0110497
        k(   79) = (   0.3666667   0.2666667   0.0000000), wk =   0.0110497
        k(   80) = (   0.3708333   0.2583333   0.0000000), wk =   0.0110497
        k(   81) = (   0.3750000   0.2500000   0.0000000), wk =   0.0110497
        k(   82) = (   0.3791667   0.2416667   0.0000000), wk =   0.0110497
        k(   83) = (   0.3833333   0.2333333   0.0000000), wk =   0.0110497
        k(   84) = (   0.3875000   0.2250000   0.0000000), wk =   0.0110497
        k(   85) = (   0.3916667   0.2166667   0.0000000), wk =   0.0110497
        k(   86) = (   0.3958333   0.2083333   0.0000000), wk =   0.0110497
        k(   87) = (   0.4000000   0.2000000   0.0000000), wk =   0.0110497
        k(   88) = (   0.4041667   0.1916667   0.0000000), wk =   0.0110497
        k(   89) = (   0.4083333   0.1833333   0.0000000), wk =   0.0110497
        k(   90) = (   0.4125000   0.1750000   0.0000000), wk =   0.0110497
        k(   91) = (   0.4166667   0.1666667   0.0000000), wk =   0.0110497
        k(   92) = (   0.4208333   0.1583333   0.0000000), wk =   0.0110497
        k(   93) = (   0.4250000   0.1500000   0.0000000), wk =   0.0110497
        k(   94) = (   0.4291667   0.1416667   0.0000000), wk =   0.0110497
        k(   95) = (   0.4333333   0.1333333   0.0000000), wk =   0.0110497
        k(   96) = (   0.4375000   0.1250000   0.0000000), wk =   0.0110497
        k(   97) = (   0.4416667   0.1166667   0.0000000), wk =   0.0110497
        k(   98) = (   0.4458333   0.1083333   0.0000000), wk =   0.0110497
        k(   99) = (   0.4500000   0.1000000   0.0000000), wk =   0.0110497
        k(  100) = (   0.4541667   0.0916667   0.0000000), wk =   0.0110497
        k(  101) = (   0.4583333   0.0833333   0.0000000), wk =   0.0110497
        k(  102) = (   0.4625000   0.0750000   0.0000000), wk =   0.0110497
        k(  103) = (   0.4666667   0.0666667   0.0000000), wk =   0.0110497
        k(  104) = (   0.4708333   0.0583333   0.0000000), wk =   0.0110497
        k(  105) = (   0.4750000   0.0500000   0.0000000), wk =   0.0110497
        k(  106) = (   0.4791667   0.0416667   0.0000000), wk =   0.0110497
        k(  107) = (   0.4833333   0.0333333   0.0000000), wk =   0.0110497
        k(  108) = (   0.4875000   0.0250000   0.0000000), wk =   0.0110497
        k(  109) = (   0.4916667   0.0166667   0.0000000), wk =   0.0110497
        k(  110) = (   0.4958333   0.0083333   0.0000000), wk =   0.0110497
        k(  111) = (   0.5000000   0.0000000   0.0000000), wk =   0.0110497
        k(  112) = (   0.4928571   0.0000000   0.0000000), wk =   0.0110497
        k(  113) = (   0.4857143   0.0000000   0.0000000), wk =   0.0110497
        k(  114) = (   0.4785714   0.0000000   0.0000000), wk =   0.0110497
        k(  115) = (   0.4714286  -0.0000000   0.0000000), wk =   0.0110497
        k(  116) = (   0.4642857   0.0000000   0.0000000), wk =   0.0110497
        k(  117) = (   0.4571429   0.0000000   0.0000000), wk =   0.0110497
        k(  118) = (   0.4500000   0.0000000   0.0000000), wk =   0.0110497
        k(  119) = (   0.4428571   0.0000000   0.0000000), wk =   0.0110497
        k(  120) = (   0.4357143  -0.0000000   0.0000000), wk =   0.0110497
        k(  121) = (   0.4285714   0.0000000   0.0000000), wk =   0.0110497
        k(  122) = (   0.4214286   0.0000000   0.0000000), wk =   0.0110497
        k(  123) = (   0.4142857   0.0000000   0.0000000), wk =   0.0110497
        k(  124) = (   0.4071429   0.0000000   0.0000000), wk =   0.0110497
        k(  125) = (   0.4000000   0.0000000   0.0000000), wk =   0.0110497
        k(  126) = (   0.3928571   0.0000000   0.0000000), wk =   0.0110497
        k(  127) = (   0.3857143   0.0000000   0.0000000), wk =   0.0110497
        k(  128) = (   0.3785714   0.0000000   0.0000000), wk =   0.0110497
        k(  129) = (   0.3714286   0.0000000   0.0000000), wk =   0.0110497
        k(  130) = (   0.3642857   0.0000000   0.0000000), wk =   0.0110497
        k(  131) = (   0.3571429   0.0000000   0.0000000), wk =   0.0110497
        k(  132) = (   0.3500000   0.0000000   0.0000000), wk =   0.0110497
        k(  133) = (   0.3428571   0.0000000   0.0000000), wk =   0.0110497
        k(  134) = (   0.3357143   0.0000000   0.0000000), wk =   0.0110497
        k(  135) = (   0.3285714   0.0000000   0.0000000), wk =   0.0110497
        k(  136) = (   0.3214286  -0.0000000   0.0000000), wk =   0.0110497
        k(  137) = (   0.3142857   0.0000000   0.0000000), wk =   0.0110497
        k(  138) = (   0.3071429   0.0000000   0.0000000), wk =   0.0110497
        k(  139) = (   0.3000000   0.0000000   0.0000000), wk =   0.0110497
        k(  140) = (   0.2928571   0.0000000   0.0000000), wk =   0.0110497
        k(  141) = (   0.2857143   0.0000000   0.0000000), wk =   0.0110497
        k(  142) = (   0.2785714   0.0000000   0.0000000), wk =   0.0110497
        k(  143) = (   0.2714286   0.0000000   0.0000000), wk =   0.0110497
        k(  144) = (   0.2642857   0.0000000   0.0000000), wk =   0.0110497
        k(  145) = (   0.2571429   0.0000000   0.0000000), wk =   0.0110497
        k(  146) = (   0.2500000   0.0000000   0.0000000), wk =   0.0110497
        k(  147) = (   0.2428571   0.0000000   0.0000000), wk =   0.0110497
        k(  148) = (   0.2357143  -0.0000000   0.0000000), wk =   0.0110497
        k(  149) = (   0.2285714   0.0000000   0.0000000), wk =   0.0110497
        k(  150) = (   0.2214286   0.0000000   0.0000000), wk =   0.0110497
        k(  151) = (   0.2142857   0.0000000   0.0000000), wk =   0.0110497
        k(  152) = (   0.2071429   0.0000000   0.0000000), wk =   0.0110497
        k(  153) = (   0.2000000   0.0000000   0.0000000), wk =   0.0110497
        k(  154) = (   0.1928571   0.0000000   0.0000000), wk =   0.0110497
        k(  155) = (   0.1857143   0.0000000   0.0000000), wk =   0.0110497
        k(  156) = (   0.1785714   0.0000000   0.0000000), wk =   0.0110497
        k(  157) = (   0.1714286   0.0000000   0.0000000), wk =   0.0110497
        k(  158) = (   0.1642857   0.0000000   0.0000000), wk =   0.0110497
        k(  159) = (   0.1571429   0.0000000   0.0000000), wk =   0.0110497
        k(  160) = (   0.1500000   0.0000000   0.0000000), wk =   0.0110497
        k(  161) = (   0.1428571   0.0000000   0.0000000), wk =   0.0110497
        k(  162) = (   0.1357143   0.0000000   0.0000000), wk =   0.0110497
        k(  163) = (   0.1285714   0.0000000   0.0000000), wk =   0.0110497
        k(  164) = (   0.1214286   0.0000000   0.0000000), wk =   0.0110497
        k(  165) = (   0.1142857  -0.0000000   0.0000000), wk =   0.0110497
        k(  166) = (   0.1071429   0.0000000   0.0000000), wk =   0.0110497
        k(  167) = (   0.1000000   0.0000000   0.0000000), wk =   0.0110497
        k(  168) = (   0.0928571   0.0000000   0.0000000), wk =   0.0110497
        k(  169) = (   0.0857143   0.0000000   0.0000000), wk =   0.0110497
        k(  170) = (   0.0785714   0.0000000   0.0000000), wk =   0.0110497
        k(  171) = (   0.0714286   0.0000000   0.0000000), wk =   0.0110497
        k(  172) = (   0.0642857   0.0000000   0.0000000), wk =   0.0110497
        k(  173) = (   0.0571429  -0.0000000   0.0000000), wk =   0.0110497
        k(  174) = (   0.0500000   0.0000000   0.0000000), wk =   0.0110497
        k(  175) = (   0.0428571   0.0000000   0.0000000), wk =   0.0110497
        k(  176) = (   0.0357143   0.0000000   0.0000000), wk =   0.0110497
        k(  177) = (   0.0285714  -0.0000000   0.0000000), wk =   0.0110497
        k(  178) = (   0.0214286   0.0000000   0.0000000), wk =   0.0110497
        k(  179) = (   0.0142857  -0.0000000   0.0000000), wk =   0.0110497
        k(  180) = (   0.0071429   0.0000000   0.0000000), wk =   0.0110497
        k(  181) = (   0.0000000   0.0000000   0.0000000), wk =   0.0110497

     Dense  grid:  1108055 G-vectors     FFT dimensions: (  72,  72, 500)

     Dynamical RAM for                 wfc:       7.93 MB

     Dynamical RAM for     wfc (w. buffer):       7.93 MB

     Dynamical RAM for           str. fact:       8.45 MB

     Dynamical RAM for           local pot:       0.00 MB

     Dynamical RAM for          nlocal pot:      16.91 MB

     Dynamical RAM for                qrad:       2.05 MB

     Dynamical RAM for          rho,v,vnew:      27.51 MB

     Dynamical RAM for           G-vectors:      17.96 MB

     Dynamical RAM for          h,s,v(r/c):       0.04 MB

     Dynamical RAM for          <psi|beta>:       0.01 MB

     Dynamical RAM for                 psi:      15.86 MB

     Dynamical RAM for                hpsi:      15.86 MB

     Dynamical RAM for                spsi:      15.86 MB

     Dynamical RAM for      wfcinit/wfcrot:      16.92 MB

     Dynamical RAM for           addusdens:      35.22 MB

     Estimated static dynamical RAM per process >     118.22 MB

     Estimated max dynamical RAM per process >     165.84 MB

     Estimated total dynamical RAM >       3.89 GB

     The potential is recalculated from file :
     ../tmp/fgc.save/charge-density


     negative rho (up, down):  5.457E-06 0.000E+00
     Starting wfcs are   16 randomized atomic wfcs

     Band Structure Calculation
     Davidson diagonalization with overlap

     Computing kpt #:     1  of    31 on this pool
     total cpu time spent up to now is      117.2 secs

     Computing kpt #:     2  of    31 on this pool
     total cpu time spent up to now is      233.8 secs

     Computing kpt #:     3  of    31 on this pool
     total cpu time spent up to now is      356.7 secs

     Computing kpt #:     4  of    31 on this pool
     total cpu time spent up to now is      494.6 secs

     Computing kpt #:     5  of    31 on this pool
     total cpu time spent up to now is      626.2 secs

     Computing kpt #:     6  of    31 on this pool
     total cpu time spent up to now is      766.5 secs

     Computing kpt #:     7  of    31 on this pool
     total cpu time spent up to now is      886.0 secs

     Computing kpt #:     8  of    31 on this pool
     total cpu time spent up to now is     1014.3 secs

     Computing kpt #:     9  of    31 on this pool
     total cpu time spent up to now is     1152.9 secs

     Computing kpt #:    10  of    31 on this pool
     total cpu time spent up to now is     1290.7 secs

     Computing kpt #:    11  of    31 on this pool
     total cpu time spent up to now is     1429.7 secs

     Computing kpt #:    12  of    31 on this pool
     total cpu time spent up to now is     1583.7 secs

     Computing kpt #:    13  of    31 on this pool
     total cpu time spent up to now is     1731.4 secs

     Computing kpt #:    14  of    31 on this pool
     total cpu time spent up to now is     1873.0 secs

     Computing kpt #:    15  of    31 on this pool
     total cpu time spent up to now is     2010.4 secs

     Computing kpt #:    16  of    31 on this pool
     total cpu time spent up to now is     2132.7 secs

     Computing kpt #:    17  of    31 on this pool
     total cpu time spent up to now is     2257.0 secs

     Computing kpt #:    18  of    31 on this pool
     total cpu time spent up to now is     2375.3 secs

     Computing kpt #:    19  of    31 on this pool
     total cpu time spent up to now is     2492.3 secs

     Computing kpt #:    20  of    31 on this pool
     total cpu time spent up to now is     2616.2 secs

     Computing kpt #:    21  of    31 on this pool
     total cpu time spent up to now is     2734.4 secs

     Computing kpt #:    22  of    31 on this pool
     total cpu time spent up to now is     2850.1 secs

     Computing kpt #:    23  of    31 on this pool
     total cpu time spent up to now is     2962.9 secs

     Computing kpt #:    24  of    31 on this pool
     total cpu time spent up to now is     3088.2 secs

     Computing kpt #:    25  of    31 on this pool
     total cpu time spent up to now is     3207.7 secs

     Computing kpt #:    26  of    31 on this pool
     total cpu time spent up to now is     3319.5 secs

     Computing kpt #:    27  of    31 on this pool
     total cpu time spent up to now is     3438.4 secs

     Computing kpt #:    28  of    31 on this pool
     total cpu time spent up to now is     3560.0 secs

     Computing kpt #:    29  of    31 on this pool
     total cpu time spent up to now is     3678.8 secs

     Computing kpt #:    30  of    31 on this pool
     total cpu time spent up to now is     3798.8 secs

     Computing kpt #:    31  of    31 on this pool
     total cpu time spent up to now is     3906.8 secs

     ethr =  1.00E-13,  avg # of iterations = 62.6

     total cpu time spent up to now is     3907.0 secs

     End of band structure calculation

          k = 0.0000 0.0000 0.0000 (138795 PWs)   bands (ev):

   -29.3985 -28.9031 -20.1857 -12.8245  -9.8438  -8.1001  -8.1001  -6.9236
    -6.9236  -3.9525  -3.9525  -0.8095   3.4077   3.4077   3.5906

          k = 0.0048 0.0082 0.0000 (138807 PWs)   bands (ev):

   -29.3979 -28.9027 -20.1847 -12.8239  -9.8442  -8.1050  -8.1017  -6.9248
    -6.9238  -3.9575  -3.9542  -0.8054   3.4082   3.4124   3.5930

          k = 0.0095 0.0165 0.0000 (138805 PWs)   bands (ev):

   -29.3961 -28.9014 -20.1815 -12.8222  -9.8457  -8.1194  -8.1063  -6.9284
    -6.9245  -3.9724  -3.9593  -0.7929   3.4097   3.4263   3.5999

          k = 0.0143 0.0247 0.0000 (138795 PWs)   bands (ev):

   -29.3931 -28.8992 -20.1763 -12.8194  -9.8481  -8.1434  -8.1140  -6.9343
    -6.9258  -3.9969  -3.9679  -0.7725   3.4125   3.4494   3.6113

          k = 0.0190 0.0330 0.0000 (138789 PWs)   bands (ev):

   -29.3889 -28.8962 -20.1690 -12.8154  -9.8515  -8.1766  -8.1249  -6.9425
    -6.9277  -4.0306  -3.9799  -0.7445   3.4166   3.4811   3.6271

          k = 0.0238 0.0412 0.0000 (138777 PWs)   bands (ev):

   -29.3836 -28.8924 -20.1596 -12.8103  -9.8559  -8.2188  -8.1388  -6.9529
    -6.9302  -4.0728  -3.9952  -0.7095   3.4222   3.5209   3.6470

          k = 0.0286 0.0495 0.0000 (138785 PWs)   bands (ev):

   -29.3770 -28.8877 -20.1481 -12.8042  -9.8613  -8.2696  -8.1558  -6.9654
    -6.9335  -4.1227  -4.0138  -0.6680   3.4297   3.5680   3.6710

          k = 0.0333 0.0577 0.0000 (138749 PWs)   bands (ev):

   -29.3693 -28.8822 -20.1345 -12.7969  -9.8678  -8.3287  -8.1760  -6.9799
    -6.9377  -4.1797  -4.0356  -0.6208   3.4390   3.6215   3.6989

          k = 0.0381 0.0660 0.0000 (138747 PWs)   bands (ev):

   -29.3605 -28.8758 -20.1188 -12.7886  -9.8753  -8.3956  -8.1993  -6.9962
    -6.9428  -4.2430  -4.0606  -0.5684   3.4506   3.6801   3.7306

          k = 0.0429 0.0742 0.0000 (138783 PWs)   bands (ev):

   -29.3505 -28.8687 -20.1010 -12.7793  -9.8840  -8.4699  -8.2258  -7.0142
    -6.9489  -4.3117  -4.0887  -0.5115   3.4643   3.7423   3.7660

          k = 0.0476 0.0825 0.0000 (138765 PWs)   bands (ev):

   -29.3394 -28.8608 -20.0812 -12.7689  -9.8939  -8.5511  -8.2553  -7.0337
    -6.9562  -4.3851  -4.1197  -0.4507   3.4805   3.8051   3.8067

          k = 0.0524 0.0907 0.0000 (138743 PWs)   bands (ev):

   -29.3272 -28.8521 -20.0592 -12.7577  -9.9049  -8.6387  -8.2880  -7.0546
    -6.9646  -4.4625  -4.1536  -0.3864   3.4992   3.8478   3.8716

          k = 0.0571 0.0990 0.0000 (138719 PWs)   bands (ev):

   -29.3140 -28.8427 -20.0352 -12.7455  -9.9172  -8.7322  -8.3237  -7.0767
    -6.9743  -4.5433  -4.1902  -0.3192   3.5204   3.8941   3.9360

          k = 0.0619 0.1072 0.0000 (138731 PWs)   bands (ev):

   -29.2997 -28.8326 -20.0091 -12.7324  -9.9308  -8.8310  -8.3624  -7.0999
    -6.9853  -4.6268  -4.2294  -0.2493   3.5444   3.9441   3.9995

          k = 0.0667 0.1155 0.0000 (138713 PWs)   bands (ev):

   -29.2844 -28.8217 -19.9809 -12.7185  -9.9458  -8.9348  -8.4041  -7.1239
    -6.9977  -4.7124  -4.2710  -0.1773   3.5712   3.9976   4.0625

          k = 0.0714 0.1237 0.0000 (138721 PWs)   bands (ev):

   -29.2682 -28.8102 -19.9506 -12.7039  -9.9623  -9.0430  -8.4486  -7.1488
    -7.0116  -4.7998  -4.3149  -0.1033   3.6007   4.0546   4.1256

          k = 0.0762 0.1320 0.0000 (138715 PWs)   bands (ev):

   -29.2509 -28.7980 -19.9183 -12.6885  -9.9803  -9.1550  -8.4958  -7.1743
    -7.0270  -4.8883  -4.3610  -0.0275   3.6332   4.1152   4.1894

          k = 0.0810 0.1402 0.0000 (138711 PWs)   bands (ev):

   -29.2328 -28.7853 -19.8839 -12.6726  -9.9998  -9.2705  -8.5457  -7.2003
    -7.0440  -4.9776  -4.4090   0.0498   3.6687   4.1793   4.2547

          k = 0.0857 0.1485 0.0000 (138719 PWs)   bands (ev):

   -29.2138 -28.7719 -19.8474 -12.6561 -10.0210  -9.3889  -8.5980  -7.2267
    -7.0626  -5.0672  -4.4588   0.1284   3.7072   4.2469   4.3217

          k = 0.0905 0.1567 0.0000 (138693 PWs)   bands (ev):

   -29.1939 -28.7580 -19.8088 -12.6392 -10.0439  -9.5098  -8.6526  -7.2534
    -7.0829  -5.1568  -4.5102   0.2083   3.7487   4.3181   4.3909

          k = 0.0952 0.1650 0.0000 (138673 PWs)   bands (ev):

   -29.1733 -28.7435 -19.7682 -12.6221 -10.0687  -9.6327  -8.7093  -7.2804
    -7.1051  -5.2460  -4.5631   0.2893   3.7933   4.3927   4.4624

          k = 0.1000 0.1732 0.0000 (138685 PWs)   bands (ev):

   -29.1519 -28.7286 -19.7254 -12.6047 -10.0954  -9.7571  -8.7680  -7.3074
    -7.1291  -5.3345  -4.6172   0.3713   3.8411   4.4707   4.5364

          k = 0.1048 0.1815 0.0000 (138675 PWs)   bands (ev):

   -29.1298 -28.7132 -19.6806 -12.5874 -10.1241  -9.8825  -8.8284  -7.3346
    -7.1550  -5.4220  -4.6724   0.4543   3.8919   4.5521   4.6130

          k = 0.1095 0.1897 0.0000 (138701 PWs)   bands (ev):

   -29.1070 -28.6974 -19.6338 -12.5702 -10.1548 -10.0086  -8.8903  -7.3617
    -7.1830  -5.5082  -4.7284   0.5383   3.9460   4.6369   4.6920

          k = 0.1143 0.1979 0.0000 (138643 PWs)   bands (ev):

   -29.0836 -28.6813 -19.5848 -12.5535 -10.1878 -10.1347  -8.9534  -7.3887
    -7.2130  -5.5929  -4.7853   0.6231   4.0032   4.7249   4.7735

          k = 0.1190 0.2062 0.0000 (138633 PWs)   bands (ev):

   -29.0596 -28.6648 -19.5338 -12.5375 -10.2603 -10.2230  -9.0177  -7.4155
    -7.2451  -5.6757  -4.8427   0.7088   4.0635   4.8161   4.8574

          k = 0.1238 0.2144 0.0000 (138635 PWs)   bands (ev):

   -29.0351 -28.6480 -19.4808 -12.5225 -10.3849 -10.2607  -9.0827  -7.4421
    -7.2793  -5.7565  -4.9005   0.7953   4.1270   4.9104   4.9435

          k = 0.1286 0.2227 0.0000 (138631 PWs)   bands (ev):

   -29.0101 -28.6310 -19.4256 -12.5089 -10.5079 -10.3008  -9.1482  -7.4684
    -7.3157  -5.8351  -4.9586   0.8826   4.1936   5.0076   5.0316

          k = 0.1333 0.2309 0.0000 (138635 PWs)   bands (ev):

   -28.9848 -28.6137 -19.3684 -12.4973 -10.6286 -10.3434  -9.2141  -7.4943
    -7.3542  -5.9113  -5.0168   0.9707   4.2633   5.1076   5.1215

          k = 0.1381 0.2392 0.0000 (138649 PWs)   bands (ev):

   -28.9590 -28.5963 -19.3091 -12.4882 -10.7462 -10.3888  -9.2800  -7.5198
    -7.3948  -5.9849  -5.0751   1.0596   4.3360   5.2102   5.2129

          k = 0.1429 0.2474 0.0000 (138619 PWs)   bands (ev):

   -28.9330 -28.5788 -19.2478 -12.4824 -10.8598 -10.4368  -9.3458  -7.5447
    -7.4375  -6.0560  -5.1333   1.1492   4.4118   5.3055   5.3150

          k = 0.1476 0.2557 0.0000 (138641 PWs)   bands (ev):

   -28.9067 -28.5613 -19.1844 -12.4809 -10.9682 -10.4877  -9.4111  -7.5690
    -7.4821  -6.1244  -5.1913   1.2396   4.4905   5.3988   5.4216

          k = 0.1524 0.2639 0.0000 (138641 PWs)   bands (ev):

   -28.8802 -28.5437 -19.1189 -12.4847 -11.0703 -10.5415  -9.4757  -7.5926
    -7.5285  -6.1902  -5.2490   1.3307   4.5720   5.4924   5.5297

          k = 0.1571 0.2722 0.0000 (138629 PWs)   bands (ev):

   -28.8536 -28.5261 -19.0513 -12.4952 -11.1647 -10.5982  -9.5394  -7.6155
    -7.5766  -6.2532  -5.3063   1.4225   4.6563   5.5858   5.6384

          k = 0.1619 0.2804 0.0000 (138637 PWs)   bands (ev):

   -28.8269 -28.5086 -18.9817 -12.5137 -11.2499 -10.6578  -9.6021  -7.6376
    -7.6261  -6.3137  -5.3633   1.5150   4.7432   5.6786   5.7469

          k = 0.1667 0.2887 0.0000 (138593 PWs)   bands (ev):

   -28.8002 -28.4911 -18.9100 -12.5414 -11.3246 -10.7203  -9.6634  -7.6768
    -7.6587  -6.3717  -5.4197   1.6083   4.8326   5.7702   5.8540

          k = 0.1714 0.2969 0.0000 (138613 PWs)   bands (ev):

   -28.7736 -28.4739 -18.8363 -12.5794 -11.3877 -10.7857  -9.7234  -7.7285
    -7.6789  -6.4273  -5.4757   1.7022   4.9241   5.8602   5.9579

          k = 0.1762 0.3052 0.0000 (138617 PWs)   bands (ev):

   -28.7470 -28.4569 -18.7605 -12.6282 -11.4385 -10.8539  -9.7818  -7.7809
    -7.6980  -6.4806  -5.5310   1.7968   5.0176   5.9482   6.0567

          k = 0.1810 0.3134 0.0000 (138613 PWs)   bands (ev):

   -28.7206 -28.4401 -18.6826 -12.6875 -11.4774 -10.9248  -9.8385  -7.8339
    -7.7160  -6.5318  -5.5858   1.8920   5.1127   6.0340   6.1478

          k = 0.1857 0.3217 0.0000 (138595 PWs)   bands (ev):

   -28.6944 -28.4236 -18.6027 -12.7566 -11.5049 -10.9983  -9.8935  -7.8870
    -7.7328  -6.5810  -5.6400   1.9878   5.2088   6.1174   6.2285

          k = 0.1905 0.3299 0.0000 (138595 PWs)   bands (ev):

   -28.6685 -28.4074 -18.5207 -12.8341 -11.5224 -11.0742  -9.9467  -7.9401
    -7.7483  -6.6284  -5.6936   2.0842   5.3052   6.1982   6.2965

          k = 0.1952 0.3382 0.0000 (138547 PWs)   bands (ev):

   -28.6430 -28.3916 -18.4367 -12.9187 -11.5314 -11.1524  -9.9982  -7.9929
    -7.7626  -6.6740  -5.7466   2.1811   5.4008   6.2767   6.3507

          k = 0.2000 0.3464 0.0000 (138551 PWs)   bands (ev):

   -28.6178 -28.3762 -18.3507 -13.0087 -11.5332 -11.2327 -10.0478  -8.0451
    -7.7755  -6.7181  -5.7989   2.2785   5.4943   6.3527   6.3923

          k = 0.2048 0.3547 0.0000 (138539 PWs)   bands (ev):

   -28.5930 -28.3613 -18.2627 -13.1029 -11.5292 -11.3147 -10.0957  -8.0967
    -7.7869  -6.7607  -5.8506   2.3764   5.5834   6.4244   6.4265

          k = 0.2095 0.3629 0.0000 (138535 PWs)   bands (ev):

   -28.5687 -28.3468 -18.1727 -13.2001 -11.5205 -11.3984 -10.1418  -8.1472
    -7.7968  -6.8019  -5.9016   2.4747   5.6651   6.4522   6.4983

          k = 0.2143 0.3712 0.0000 (138531 PWs)   bands (ev):

   -28.5450 -28.3329 -18.0807 -13.2994 -11.5080 -11.4835 -10.1861  -8.1967
    -7.8052  -6.8419  -5.9520   2.5734   5.7355   6.4823   6.5682

          k = 0.2190 0.3794 0.0000 (138503 PWs)   bands (ev):

   -28.5218 -28.3196 -17.9868 -13.4000 -11.5697 -11.4925 -10.2289  -8.2448
    -7.8119  -6.8807  -6.0018   2.6724   5.7901   6.5213   6.6363

          k = 0.2238 0.3876 0.0000 (138503 PWs)   bands (ev):

   -28.4993 -28.3068 -17.8910 -13.5012 -11.6568 -11.4746 -10.2700  -8.2915
    -7.8170  -6.9184  -6.0509   2.7716   5.8257   6.5745   6.7027

          k = 0.2286 0.3959 0.0000 (138499 PWs)   bands (ev):

   -28.4774 -28.2946 -17.7934 -13.6027 -11.7445 -11.4548 -10.3096  -8.3367
    -7.8203  -6.9551  -6.0994   2.8710   5.8415   6.6442   6.7676

          k = 0.2333 0.4041 0.0000 (138497 PWs)   bands (ev):

   -28.4562 -28.2831 -17.6939 -13.7040 -11.8327 -11.4334 -10.3477  -8.3802
    -7.8218  -6.9907  -6.1472   2.9705   5.8395   6.7295   6.8308

          k = 0.2381 0.4124 0.0000 (138497 PWs)   bands (ev):

   -28.4358 -28.2723 -17.5927 -13.8048 -11.9209 -11.4108 -10.3844  -8.4219
    -7.8216  -7.0253  -6.1944   3.0701   5.8233   6.8277   6.8922

          k = 0.2429 0.4206 0.0000 (138510 PWs)   bands (ev):

   -28.4161 -28.2621 -17.4898 -13.9049 -12.0091 -11.3872 -10.4197  -8.4618
    -7.8194  -7.0590  -6.2409   3.1695   5.7965   6.9357   6.9516

          k = 0.2476 0.4289 0.0000 (138498 PWs)   bands (ev):

   -28.3973 -28.2527 -17.3853 -14.0041 -12.0970 -11.3627 -10.4538  -8.4999
    -7.8154  -7.0917  -6.2867   3.2688   5.7619   7.0083   7.0510

          k = 0.2524 0.4371 0.0000 (138502 PWs)   bands (ev):

   -28.3792 -28.2440 -17.2794 -14.1021 -12.1842 -11.3377 -10.4866  -8.5359
    -7.8094  -7.1234  -6.3317   3.3677   5.7218   7.0616   7.1714

          k = 0.2571 0.4454 0.0000 (138526 PWs)   bands (ev):

   -28.3621 -28.2360 -17.1721 -14.1989 -12.2705 -11.3122 -10.5184  -8.5700
    -7.8015  -7.1542  -6.3760   3.4663   5.6777   7.1100   7.2954

          k = 0.2619 0.4536 0.0000 (138556 PWs)   bands (ev):

   -28.3457 -28.2288 -17.0635 -14.2944 -12.3556 -11.2863 -10.5490  -8.6022
    -7.7916  -7.1840  -6.4195   3.5643   5.6306   7.1516   7.4217

          k = 0.2667 0.4619 0.0000 (138560 PWs)   bands (ev):

   -28.3303 -28.2223 -16.9540 -14.3885 -12.4392 -11.2601 -10.5787  -8.6322
    -7.7798  -7.2129  -6.4622   3.6616   5.5814   7.1839   7.5491

          k = 0.2714 0.4701 0.0000 (138510 PWs)   bands (ev):

   -28.3157 -28.2165 -16.8435 -14.4811 -12.5210 -11.2338 -10.6074  -8.6603
    -7.7661  -7.2407  -6.5039   3.7580   5.5307   7.2047   7.6764

          k = 0.2762 0.4784 0.0000 (138512 PWs)   bands (ev):

   -28.3021 -28.2115 -16.7325 -14.5722 -12.6007 -11.2075 -10.6352  -8.6863
    -7.7505  -7.2675  -6.5446   3.8534   5.4788   7.2127   7.7409

          k = 0.2810 0.4866 0.0000 (138518 PWs)   bands (ev):

   -28.2893 -28.2073 -16.6212 -14.6616 -12.6779 -11.1811 -10.6622  -8.7102
    -7.7330  -7.2932  -6.5841   3.9475   5.4261   7.2090   7.7697

          k = 0.2857 0.4949 0.0000 (138510 PWs)   bands (ev):

   -28.2775 -28.2038 -16.5099 -14.7494 -12.7521 -11.1548 -10.6885  -8.7321
    -7.7139  -7.3179  -6.6224   4.0402   5.3728   7.1960   7.8106

          k = 0.2905 0.5031 0.0000 (138520 PWs)   bands (ev):

   -28.2665 -28.2010 -16.3990 -14.8355 -12.8229 -11.1288 -10.7140  -8.7519
    -7.6933  -7.3414  -6.6592   4.1311   5.3190   7.1768   7.8607

          k = 0.2952 0.5114 0.0000 (138520 PWs)   bands (ev):

   -28.2565 -28.1990 -16.2890 -14.9200 -12.8897 -11.1029 -10.7389  -8.7697
    -7.6713  -7.3639  -6.6943   4.2201   5.2648   7.1541   7.9177

          k = 0.3000 0.5196 0.0000 (138530 PWs)   bands (ev):

   -28.2473 -28.1976 -16.1805 -15.0027 -12.9520 -11.0775 -10.7632  -8.7854
    -7.6482  -7.3852  -6.7274   4.3068   5.2103   7.1301   7.9799

          k = 0.3048 0.5279 0.0000 (138514 PWs)   bands (ev):

   -28.2390 -28.1970 -16.0741 -15.0836 -13.0090 -11.0524 -10.7868  -8.7990
    -7.6244  -7.4053  -6.7582   4.3908   5.1555   7.1064   8.0461

          k = 0.3095 0.5361 0.0000 (138516 PWs)   bands (ev):

   -28.2315 -28.1970 -15.9707 -15.1628 -13.0600 -11.0279 -10.8099  -8.8105
    -7.6004  -7.4243  -6.7863   4.4719   5.1004   7.0842   8.1153

          k = 0.3143 0.5444 0.0000 (138508 PWs)   bands (ev):

   -28.2249 -28.1976 -15.8710 -15.2402 -13.1040 -11.0041 -10.8324  -8.8199
    -7.5767  -7.4420  -6.8110   4.5497   5.0450   7.0644   8.1869

          k = 0.3190 0.5526 0.0000 (138526 PWs)   bands (ev):

   -28.2191 -28.1989 -15.7762 -15.3158 -13.1401 -10.9809 -10.8543  -8.8272
    -7.5540  -7.4586  -6.8317   4.6237   4.9893   7.0479   8.2604

          k = 0.3238 0.5609 0.0000 (138526 PWs)   bands (ev):

   -28.2140 -28.2008 -15.6872 -15.3896 -13.1673 -10.9586 -10.8757  -8.8325
    -7.5331  -7.4739  -6.8475   4.6935   4.9332   7.0355   8.3356

          k = 0.3286 0.5691 0.0000 (138484 PWs)   bands (ev):

   -28.2097 -28.2032 -15.6053 -15.4615 -13.1843 -10.9372 -10.8965  -8.8356
    -7.5151  -7.4879  -6.8577   4.7588   4.8765   7.0276   8.4120

          k = 0.3333 0.5774 0.0000 (138474 PWs)   bands (ev):

   -28.2062 -28.2062 -15.5317 -15.5317 -13.1903 -10.9167 -10.9167  -8.8366
    -7.5008  -7.5008  -6.8612   4.8191   4.8191   7.0248   8.4895

          k = 0.3375 0.5701 0.0000 (138476 PWs)   bands (ev):

   -28.2092 -28.2036 -15.5915 -15.4747 -13.1855 -10.9339 -10.8998  -8.8358
    -7.5109  -7.4919  -6.8583   4.7683   4.8676   7.0270   8.4102

          k = 0.3417 0.5629 0.0000 (138480 PWs)   bands (ev):

   -28.2125 -28.2016 -15.6500 -15.4255 -13.1711 -10.9505 -10.8837  -8.8335
    -7.5202  -7.4868  -6.8496   4.7167   4.9117   7.0338   8.3100

          k = 0.3458 0.5557 0.0000 (138500 PWs)   bands (ev):

   -28.2162 -28.2000 -15.7070 -15.3842 -13.1466 -10.9666 -10.8685  -8.8296
    -7.5284  -7.4857  -6.8348   4.6642   4.9515   7.0452   8.1911

          k = 0.3500 0.5485 0.0000 (138470 PWs)   bands (ev):

   -28.2202 -28.1989 -15.7626 -15.3511 -13.1121 -10.9820 -10.8543  -8.8242
    -7.5357  -7.4883  -6.8143   4.6106   4.9867   7.0616   8.0561

          k = 0.3542 0.5413 0.0000 (138482 PWs)   bands (ev):

   -28.2245 -28.1982 -15.8167 -15.3261 -13.0677 -10.9967 -10.8412  -8.8174
    -7.5420  -7.4945  -6.7883   4.5557   5.0174   7.0828   7.9079

          k = 0.3583 0.5340 0.0000 (138470 PWs)   bands (ev):

   -28.2291 -28.1980 -15.8694 -15.3088 -13.0141 -11.0106 -10.8290  -8.8091
    -7.5473  -7.5036  -6.7575   4.4992   5.0435   7.1088   7.7491

          k = 0.3625 0.5268 0.0000 (138484 PWs)   bands (ev):

   -28.2338 -28.1981 -15.9207 -15.2988 -12.9518 -11.0236 -10.8179  -8.7996
    -7.5517  -7.5153  -6.7223   4.4409   5.0653   7.1396   7.5822

          k = 0.3667 0.5196 0.0000 (138498 PWs)   bands (ev):

   -28.2388 -28.1986 -15.9705 -15.2952 -12.8819 -11.0356 -10.8079  -8.7888
    -7.5550  -7.5291  -6.6833   4.3804   5.0829   7.1750   7.4097

          k = 0.3708 0.5124 0.0000 (138506 PWs)   bands (ev):

   -28.2440 -28.1994 -16.0189 -15.2975 -12.8053 -11.0464 -10.7989  -8.7769
    -7.5575  -7.5444  -6.6411   4.3174   5.0965   7.2146   7.2337

          k = 0.3750 0.5052 0.0000 (138502 PWs)   bands (ev):

   -28.2493 -28.2005 -16.0657 -15.3047 -12.7231 -11.0558 -10.7909  -8.7639
    -7.5610  -7.5589  -6.5961   4.2514   5.1064   7.0561   7.2583

          k = 0.3792 0.4980 0.0000 (138482 PWs)   bands (ev):

   -28.2548 -28.2019 -16.1112 -15.3162 -12.6365 -11.0636 -10.7840  -8.7500
    -7.5784  -7.5594  -6.5488   4.1820   5.1129   6.8788   7.3056

          k = 0.3833 0.4907 0.0000 (138484 PWs)   bands (ev):

   -28.2603 -28.2036 -16.1551 -15.3312 -12.5467 -11.0694 -10.7780  -8.7353
    -7.5964  -7.5590  -6.4995   4.1086   5.1163   6.7035   7.3562

          k = 0.3875 0.4835 0.0000 (138490 PWs)   bands (ev):

   -28.2660 -28.2054 -16.1976 -15.3490 -12.4548 -11.0729 -10.7730  -8.7199
    -7.6147  -7.5576  -6.4485   4.0308   5.1170   6.5317   7.4098

          k = 0.3917 0.4763 0.0000 (138496 PWs)   bands (ev):

   -28.2717 -28.2075 -16.2385 -15.3690 -12.3621 -11.0737 -10.7689  -8.7040
    -7.6332  -7.5553  -6.3962   3.9479   5.1154   6.3650   7.4660

          k = 0.3958 0.4691 0.0000 (138504 PWs)   bands (ev):

   -28.2774 -28.2097 -16.2780 -15.3908 -12.2700 -11.0710 -10.7656  -8.6876
    -7.6517  -7.5521  -6.3428   3.8596   5.1116   6.2047   7.5243

          k = 0.4000 0.4619 0.0000 (138484 PWs)   bands (ev):

   -28.2831 -28.2121 -16.3160 -15.4139 -12.1799 -11.0642 -10.7631  -8.6710
    -7.6701  -7.5480  -6.2886   3.7654   5.1061   6.0519   7.5846

          k = 0.4042 0.4547 0.0000 (138486 PWs)   bands (ev):

   -28.2888 -28.2146 -16.3525 -15.4378 -12.0931 -11.0523 -10.7613  -8.6543
    -7.6882  -7.5431  -6.2338   3.6650   5.0991   5.9076   7.6463

          k = 0.4083 0.4474 0.0000 (138478 PWs)   bands (ev):

   -28.2944 -28.2172 -16.3875 -15.4622 -12.0113 -11.0345 -10.7603  -8.6376
    -7.7060  -7.5374  -6.1785   3.5584   5.0909   5.7728   7.7091

          k = 0.4125 0.4402 0.0000 (138492 PWs)   bands (ev):

   -28.3000 -28.2198 -16.4209 -15.4868 -11.9361 -11.0097 -10.7598  -8.6211
    -7.7234  -7.5310  -6.1231   3.4459   5.0817   5.6477   7.7728

          k = 0.4167 0.4330 0.0000 (138484 PWs)   bands (ev):

   -28.3055 -28.2225 -16.4529 -15.5114 -11.8688 -10.9772 -10.7598  -8.6048
    -7.7403  -7.5238  -6.0676   3.3277   5.0717   5.5327   7.8371

          k = 0.4208 0.4258 0.0000 (138482 PWs)   bands (ev):

   -28.3108 -28.2252 -16.4833 -15.5357 -11.8105 -10.9363 -10.7604  -8.5889
    -7.7566  -7.5161  -6.0124   3.2046   5.0612   5.4276   7.9015

          k = 0.4250 0.4186 0.0000 (138462 PWs)   bands (ev):

   -28.3160 -28.2280 -16.5122 -15.5595 -11.7614 -10.8873 -10.7613  -8.5735
    -7.7724  -7.5078  -5.9575   3.0777   5.0504   5.3322   7.9658

          k = 0.4292 0.4114 0.0000 (138416 PWs)   bands (ev):

   -28.3211 -28.2307 -16.5396 -15.5827 -11.7214 -10.8308 -10.7626  -8.5586
    -7.7875  -7.4991  -5.9033   2.9478   5.0393   5.2461   8.0298

          k = 0.4333 0.4041 0.0000 (138438 PWs)   bands (ev):

   -28.3260 -28.2333 -16.5654 -15.6052 -11.6896 -10.7682 -10.7641  -8.5444
    -7.8019  -7.4900  -5.8500   2.8164   5.0282   5.1686   8.0930

          k = 0.4375 0.3969 0.0000 (138422 PWs)   bands (ev):

   -28.3306 -28.2359 -16.5897 -15.6268 -11.6649 -10.7659 -10.7011  -8.5309
    -7.8157  -7.4807  -5.7977   2.6847   5.0171   5.0990   8.1553

          k = 0.4417 0.3897 0.0000 (138402 PWs)   bands (ev):

   -28.3351 -28.2384 -16.6124 -15.6474 -11.6461 -10.7678 -10.6312  -8.5182
    -7.8286  -7.4712  -5.7467   2.5540   5.0063   5.0368   8.2162

          k = 0.4458 0.3825 0.0000 (138412 PWs)   bands (ev):

   -28.3393 -28.2409 -16.6336 -15.6668 -11.6320 -10.7699 -10.5602  -8.5062
    -7.8408  -7.4616  -5.6973   2.4257   4.9813   4.9957   8.2755

          k = 0.4500 0.3753 0.0000 (138412 PWs)   bands (ev):

   -28.3433 -28.2432 -16.6532 -15.6851 -11.6215 -10.7720 -10.4895  -8.4952
    -7.8522  -7.4522  -5.6497   2.3010   4.9319   4.9856   8.3328

          k = 0.4542 0.3681 0.0000 (138418 PWs)   bands (ev):

   -28.3470 -28.2454 -16.6713 -15.7022 -11.6139 -10.7741 -10.4205  -8.4850
    -7.8628  -7.4430  -5.6042   2.1811   4.8880   4.9760   8.3878

          k = 0.4583 0.3608 0.0000 (138422 PWs)   bands (ev):

   -28.3505 -28.2474 -16.6878 -15.7180 -11.6084 -10.7762 -10.3542  -8.4757
    -7.8726  -7.4340  -5.5612   2.0673   4.8492   4.9670   8.4400

          k = 0.4625 0.3536 0.0000 (138436 PWs)   bands (ev):

   -28.3536 -28.2493 -16.7027 -15.7324 -11.6045 -10.7782 -10.2917  -8.4673
    -7.8814  -7.4256  -5.5209   1.9606   4.8152   4.9586   8.4892

          k = 0.4667 0.3464 0.0000 (138422 PWs)   bands (ev):

   -28.3565 -28.2510 -16.7161 -15.7454 -11.6018 -10.7801 -10.2337  -8.4598
    -7.8894  -7.4176  -5.4837   1.8620   4.7855   4.9509   8.5349

          k = 0.4708 0.3392 0.0000 (138434 PWs)   bands (ev):

   -28.3590 -28.2526 -16.7279 -15.7569 -11.6000 -10.7818 -10.1810  -8.4532
    -7.8965  -7.4104  -5.4499   1.7725   4.7599   4.9441   8.5766

          k = 0.4750 0.3320 0.0000 (138408 PWs)   bands (ev):

   -28.3612 -28.2539 -16.7382 -15.7670 -11.5989 -10.7834 -10.1341  -8.4475
    -7.9027  -7.4038  -5.4197   1.6931   4.7381   4.9380   8.6140

          k = 0.4792 0.3248 0.0000 (138388 PWs)   bands (ev):

   -28.3631 -28.2551 -16.7469 -15.7756 -11.5982 -10.7847 -10.0936  -8.4427
    -7.9080  -7.3982  -5.3936   1.6244   4.7200   4.9328   8.6465

          k = 0.4833 0.3175 0.0000 (138404 PWs)   bands (ev):

   -28.3647 -28.2561 -16.7540 -15.7826 -11.5978 -10.7859 -10.0599  -8.4388
    -7.9123  -7.3934  -5.3718   1.5672   4.7053   4.9285   8.6739

          k = 0.4875 0.3103 0.0000 (138386 PWs)   bands (ev):

   -28.3659 -28.2568 -16.7595 -15.7881 -11.5976 -10.7868 -10.0333  -8.4358
    -7.9156  -7.3897  -5.3545   1.5220   4.6940   4.9251   8.6956

          k = 0.4917 0.3031 0.0000 (138404 PWs)   bands (ev):

   -28.3668 -28.2573 -16.7634 -15.7921 -11.5975 -10.7875 -10.0141  -8.4336
    -7.9180  -7.3869  -5.3420   1.4895   4.6861   4.9227   8.7114

          k = 0.4958 0.2959 0.0000 (138412 PWs)   bands (ev):

   -28.3673 -28.2577 -16.7658 -15.7944 -11.5974 -10.7879 -10.0025  -8.4323
    -7.9195  -7.3853  -5.3345   1.4698   4.6813   4.9212   8.7209

          k = 0.5000 0.2887 0.0000 (138400 PWs)   bands (ev):

   -28.3675 -28.2578 -16.7666 -15.7952 -11.5974 -10.7880  -9.9986  -8.4319
    -7.9200  -7.3847  -5.3320   1.4632   4.6797   4.9207   8.7241

          k = 0.4929 0.2846 0.0000 (138424 PWs)   bands (ev):

   -28.3682 -28.2580 -16.7784 -15.7819 -11.5980 -10.7873  -9.9978  -8.4312
    -7.9186  -7.3845  -5.3315   1.4626   4.6755   4.9263   8.7222

          k = 0.4857 0.2804 0.0000 (138408 PWs)   bands (ev):

   -28.3703 -28.2587 -16.8122 -15.7436 -11.5998 -10.7851  -9.9954  -8.4291
    -7.9146  -7.3838  -5.3302   1.4607   4.6639   4.9419   8.7164

          k = 0.4786 0.2763 0.0000 (138404 PWs)   bands (ev):

   -28.3737 -28.2599 -16.8635 -15.6847 -11.6027 -10.7816  -9.9914  -8.4257
    -7.9079  -7.3825  -5.3281   1.4577   4.6469   4.9655   8.7068

          k = 0.4714 0.2722 0.0000 (138388 PWs)   bands (ev):

   -28.3785 -28.2615 -16.9277 -15.6100 -11.6068 -10.7766  -9.9858  -8.4209
    -7.8984  -7.3808  -5.3251   1.4534   4.6266   4.9950   8.6933

          k = 0.4643 0.2681 0.0000 (138396 PWs)   bands (ev):

   -28.3846 -28.2637 -17.0005 -15.5236 -11.6120 -10.7702  -9.9786  -8.4148
    -7.8863  -7.3786  -5.3212   1.4480   4.6042   5.0290   8.6759

          k = 0.4571 0.2639 0.0000 (138408 PWs)   bands (ev):

   -28.3919 -28.2664 -17.0792 -15.4285 -11.6183 -10.7625  -9.9698  -8.4074
    -7.8715  -7.3759  -5.3165   1.4414   4.5807   5.0666   8.6546

          k = 0.4500 0.2598 0.0000 (138408 PWs)   bands (ev):

   -28.4004 -28.2697 -17.1614 -15.3269 -11.6256 -10.7535  -9.9594  -8.3987
    -7.8539  -7.3727  -5.3109   1.4336   4.5565   5.1071   8.6294

          k = 0.4429 0.2557 0.0000 (138440 PWs)   bands (ev):

   -28.4101 -28.2736 -17.2459 -15.2201 -11.6339 -10.7432  -9.9475  -8.3887
    -7.8337  -7.3691  -5.3044   1.4248   4.5318   5.1502   8.6003

          k = 0.4357 0.2516 0.0000 (138450 PWs)   bands (ev):

   -28.4208 -28.2781 -17.3316 -15.1094 -11.6430 -10.7317  -9.9340  -8.3775
    -7.8107  -7.3650  -5.2971   1.4149   4.5069   5.1955   8.5673

          k = 0.4286 0.2474 0.0000 (138478 PWs)   bands (ev):

   -28.4326 -28.2832 -17.4178 -14.9954 -11.6530 -10.7190  -9.9190  -8.3651
    -7.7851  -7.3604  -5.2890   1.4040   4.4817   5.2427   8.5303

          k = 0.4214 0.2433 0.0000 (138462 PWs)   bands (ev):

   -28.4453 -28.2890 -17.5040 -14.8786 -11.6638 -10.7051  -9.9025  -8.3516
    -7.7568  -7.3555  -5.2800   1.3921   4.4563   5.2916   8.4894

          k = 0.4143 0.2392 0.0000 (138482 PWs)   bands (ev):

   -28.4590 -28.2953 -17.5898 -14.7596 -11.6752 -10.6902  -9.8844  -8.3369
    -7.7257  -7.3500  -5.2701   1.3792   4.4307   5.3420   8.4445

          k = 0.4071 0.2351 0.0000 (138488 PWs)   bands (ev):

   -28.4736 -28.3024 -17.6751 -14.6387 -11.6872 -10.6742  -9.8649  -8.3211
    -7.6920  -7.3442  -5.2595   1.3654   4.4048   5.3935   8.3956

          k = 0.4000 0.2309 0.0000 (138494 PWs)   bands (ev):

   -28.4890 -28.3100 -17.7595 -14.5161 -11.6996 -10.6572  -9.8440  -8.3043
    -7.6557  -7.3379  -5.2479   1.3507   4.3786   5.4457   8.3198

          k = 0.3929 0.2268 0.0000 (138500 PWs)   bands (ev):

   -28.5052 -28.3183 -17.8430 -14.3922 -11.7123 -10.6393  -9.8216  -8.2865
    -7.6167  -7.3312  -5.2356   1.3351   4.3522   5.4984   8.1691

          k = 0.3857 0.2227 0.0000 (138524 PWs)   bands (ev):

   -28.5222 -28.3272 -17.9255 -14.2673 -11.7252 -10.6205  -9.7978  -8.2677
    -7.5750  -7.3242  -5.2224   1.3186   4.3255   5.5510   8.0215

          k = 0.3786 0.2186 0.0000 (138502 PWs)   bands (ev):

   -28.5398 -28.3366 -18.0067 -14.1415 -11.7382 -10.6009  -9.7726  -8.2479
    -7.5308  -7.3168  -5.2084   1.3012   4.2984   5.6029   7.8774

          k = 0.3714 0.2144 0.0000 (138522 PWs)   bands (ev):

   -28.5581 -28.3466 -18.0867 -14.0152 -11.7509 -10.5806  -9.7461  -8.2272
    -7.4841  -7.3090  -5.1935   1.2829   4.2710   5.6534   7.7368

          k = 0.3643 0.2103 0.0000 (138518 PWs)   bands (ev):

   -28.5770 -28.3572 -18.1655 -13.8888 -11.7631 -10.5595  -9.7184  -8.2055
    -7.4348  -7.3009  -5.1779   1.2637   4.2434   5.7016   7.6000

          k = 0.3571 0.2062 0.0000 (138504 PWs)   bands (ev):

   -28.5965 -28.3682 -18.2429 -13.7625 -11.7746 -10.5378  -9.6893  -8.1831
    -7.3831  -7.2925  -5.1614   1.2437   4.2154   5.7465   7.4669

          k = 0.3500 0.2021 0.0000 (138482 PWs)   bands (ev):

   -28.6165 -28.3798 -18.3189 -13.6367 -11.7849 -10.5154  -9.6590  -8.1597
    -7.3289  -7.2838  -5.1442   1.2227   4.1872   5.7866   7.3377

          k = 0.3429 0.1979 0.0000 (138514 PWs)   bands (ev):

   -28.6370 -28.3918 -18.3935 -13.5121 -11.7937 -10.4926  -9.6275  -8.1356
    -7.2747  -7.2724  -5.1261   1.2007   4.1588   5.8205   7.2120

          k = 0.3357 0.1938 0.0000 (138534 PWs)   bands (ev):

   -28.6579 -28.4042 -18.4667 -13.3893 -11.8003 -10.4693  -9.5949  -8.1106
    -7.2655  -7.2136  -5.1072   1.1777   4.1302   5.8463   7.0894

          k = 0.3286 0.1897 0.0000 (138544 PWs)   bands (ev):

   -28.6792 -28.4170 -18.5385 -13.2691 -11.8038 -10.4456  -9.5612  -8.0849
    -7.2560  -7.1525  -5.0876   1.1537   4.1014   5.8618   6.9692

          k = 0.3214 0.1856 0.0000 (138538 PWs)   bands (ev):

   -28.7008 -28.4302 -18.6088 -13.1526 -11.8034 -10.4215  -9.5265  -8.0584
    -7.2462  -7.0892  -5.0672   1.1287   4.0726   5.8653   6.8509

          k = 0.3143 0.1815 0.0000 (138552 PWs)   bands (ev):

   -28.7228 -28.4437 -18.6776 -13.0411 -11.7977 -10.3971  -9.4907  -8.0312
    -7.2363  -7.0238  -5.0460   1.1024   4.0439   5.8551   6.7341

          k = 0.3071 0.1773 0.0000 (138556 PWs)   bands (ev):

   -28.7449 -28.4576 -18.7449 -12.9364 -11.7850 -10.3724  -9.4540  -8.0033
    -7.2262  -6.9564  -5.0241   1.0750   4.0151   5.8304   6.6187

          k = 0.3000 0.1732 0.0000 (138592 PWs)   bands (ev):

   -28.7673 -28.4716 -18.8107 -12.8404 -11.7635 -10.3475  -9.4165  -7.9747
    -7.2159  -6.8870  -5.0014   1.0463   3.9866   5.7916   6.5049

          k = 0.2929 0.1691 0.0000 (138598 PWs)   bands (ev):

   -28.7899 -28.4860 -18.8751 -12.7552 -11.7312 -10.3224  -9.3781  -7.9454
    -7.2055  -6.8157  -4.9779   1.0163   3.9583   5.7402   6.3929

          k = 0.2857 0.1650 0.0000 (138610 PWs)   bands (ev):

   -28.8125 -28.5005 -18.9379 -12.6827 -11.6863 -10.2972  -9.3389  -7.9155
    -7.1950  -6.7426  -4.9538   0.9850   3.9303   5.6782   6.2827

          k = 0.2786 0.1608 0.0000 (138614 PWs)   bands (ev):

   -28.8352 -28.5151 -18.9992 -12.6240 -11.6278 -10.2718  -9.2991  -7.8850
    -7.1844  -6.6678  -4.9289   0.9522   3.9027   5.6081   6.1744

          k = 0.2714 0.1567 0.0000 (138606 PWs)   bands (ev):

   -28.8580 -28.5299 -19.0590 -12.5791 -11.5557 -10.2464  -9.2586  -7.8539
    -7.1737  -6.5914  -4.9033   0.9179   3.8756   5.5321   6.0683

          k = 0.2643 0.1526 0.0000 (138594 PWs)   bands (ev):

   -28.8807 -28.5448 -19.1172 -12.5469 -11.4713 -10.2207  -9.2175  -7.8223
    -7.1630  -6.5134  -4.8771   0.8821   3.8491   5.4521   5.9642

          k = 0.2571 0.1485 0.0000 (138604 PWs)   bands (ev):

   -28.9034 -28.5598 -19.1740 -12.5257 -11.3767 -10.1949  -9.1760  -7.7903
    -7.1523  -6.4340  -4.8502   0.8447   3.8233   5.3695   5.8623

          k = 0.2500 0.1443 0.0000 (138654 PWs)   bands (ev):

   -28.9260 -28.5748 -19.2292 -12.5134 -11.2739 -10.1689  -9.1341  -7.7577
    -7.1416  -6.3532  -4.8226   0.8057   3.7982   5.2856   5.7626

          k = 0.2429 0.1402 0.0000 (138648 PWs)   bands (ev):

   -28.9485 -28.5897 -19.2828 -12.5081 -11.1653 -10.1425  -9.0918  -7.7248
    -7.1309  -6.2711  -4.7945   0.7651   3.7739   5.2013   5.6649

          k = 0.2357 0.1361 0.0000 (138632 PWs)   bands (ev):

   -28.9707 -28.6047 -19.3350 -12.5081 -11.0528 -10.1155  -9.0493  -7.6916
    -7.1203  -6.1879  -4.7657   0.7228   3.7504   5.1173   5.5694

          k = 0.2286 0.1320 0.0000 (138616 PWs)   bands (ev):

   -28.9928 -28.6195 -19.3856 -12.5122 -10.9381 -10.0877  -9.0066  -7.6580
    -7.1098  -6.1037  -4.7364   0.6789   3.7279   5.0340   5.4761

          k = 0.2214 0.1278 0.0000 (138636 PWs)   bands (ev):

   -29.0146 -28.6343 -19.4346 -12.5194 -10.8228 -10.0585  -8.9638  -7.6243
    -7.0994  -6.0186  -4.7065   0.6332   3.7063   4.9520   5.3849

          k = 0.2143 0.1237 0.0000 (138632 PWs)   bands (ev):

   -29.0360 -28.6489 -19.4822 -12.5290 -10.7085 -10.0273  -8.9210  -7.5903
    -7.0891  -5.9326  -4.6762   0.5860   3.6856   4.8715   5.2958

          k = 0.2071 0.1196 0.0000 (138590 PWs)   bands (ev):

   -29.0572 -28.6633 -19.5281 -12.5402 -10.5970  -9.9931  -8.8783  -7.5564
    -7.0790  -5.8460  -4.6454   0.5371   3.6660   4.7928   5.2088

          k = 0.2000 0.1155 0.0000 (138596 PWs)   bands (ev):

   -29.0780 -28.6776 -19.5726 -12.5527 -10.4906  -9.9543  -8.8359  -7.5224
    -7.0691  -5.7588  -4.6142   0.4867   3.6473   4.7160   5.1239

          k = 0.1929 0.1113 0.0000 (138634 PWs)   bands (ev):

   -29.0983 -28.6916 -19.6155 -12.5662 -10.3919  -9.9087  -8.7936  -7.4884
    -7.0594  -5.6712  -4.5827   0.4348   3.6296   4.6413   5.0412

          k = 0.1857 0.1072 0.0000 (138640 PWs)   bands (ev):

   -29.1183 -28.7053 -19.6568 -12.5802 -10.3038  -9.8537  -8.7518  -7.4547
    -7.0499  -5.5833  -4.5508   0.3815   3.6129   4.5689   4.9606

          k = 0.1786 0.1031 0.0000 (138666 PWs)   bands (ev):

   -29.1377 -28.7188 -19.6966 -12.5947 -10.2289  -9.7875  -8.7104  -7.4212
    -7.0406  -5.4952  -4.5187   0.3268   3.5971   4.4988   4.8822

          k = 0.1714 0.0990 0.0000 (138659 PWs)   bands (ev):

   -29.1567 -28.7320 -19.7349 -12.6094 -10.1677  -9.7096  -8.6696  -7.3880
    -7.0316  -5.4072  -4.4865   0.2710   3.5823   4.4311   4.8060

          k = 0.1643 0.0949 0.0000 (138687 PWs)   bands (ev):

   -29.1751 -28.7448 -19.7716 -12.6241 -10.1190  -9.6218  -8.6295  -7.3552
    -7.0229  -5.3193  -4.4541   0.2140   3.5683   4.3658   4.7320

          k = 0.1571 0.0907 0.0000 (138679 PWs)   bands (ev):

   -29.1929 -28.7573 -19.8068 -12.6388 -10.0800  -9.5270  -8.5901  -7.3230
    -7.0146  -5.2319  -4.4218   0.1562   3.5551   4.3031   4.6602

          k = 0.1500 0.0866 0.0000 (138705 PWs)   bands (ev):

   -29.2102 -28.7694 -19.8404 -12.6533 -10.0482  -9.4282  -8.5516  -7.2915
    -7.0065  -5.1449  -4.3895   0.0975   3.5427   4.2429   4.5908

          k = 0.1429 0.0825 0.0000 (138715 PWs)   bands (ev):

   -29.2268 -28.7811 -19.8724 -12.6676 -10.0217  -9.3276  -8.5141  -7.2606
    -6.9987  -5.0587  -4.3574   0.0383   3.5310   4.1853   4.5239

          k = 0.1357 0.0784 0.0000 (138729 PWs)   bands (ev):

   -29.2428 -28.7923 -19.9029 -12.6815  -9.9990  -9.2268  -8.4776  -7.2306
    -6.9913  -4.9734  -4.3256  -0.0214   3.5200   4.1303   4.4594

          k = 0.1286 0.0742 0.0000 (138719 PWs)   bands (ev):

   -29.2582 -28.8031 -19.9319 -12.6950  -9.9793  -9.1270  -8.4423  -7.2015
    -6.9843  -4.8894  -4.2942  -0.0812   3.5096   4.0778   4.3975

          k = 0.1214 0.0701 0.0000 (138747 PWs)   bands (ev):

   -29.2728 -28.8135 -19.9593 -12.7081  -9.9619  -9.0293  -8.4082  -7.1734
    -6.9777  -4.8067  -4.2633  -0.1409   3.4997   4.0280   4.3282

          k = 0.1143 0.0660 0.0000 (138719 PWs)   bands (ev):

   -29.2867 -28.8233 -19.9851 -12.7206  -9.9464  -8.9342  -8.3755  -7.1464
    -6.9714  -4.7257  -4.2331  -0.2004   3.4903   3.9809   4.2318

          k = 0.1071 0.0619 0.0000 (138735 PWs)   bands (ev):

   -29.2999 -28.8327 -20.0094 -12.7325  -9.9325  -8.8423  -8.3442  -7.1207
    -6.9655  -4.6467  -4.2036  -0.2592   3.4814   3.9363   4.1393

          k = 0.1000 0.0577 0.0000 (138741 PWs)   bands (ev):

   -29.3123 -28.8415 -20.0321 -12.7439  -9.9199  -8.7542  -8.3145  -7.0963
    -6.9600  -4.5700  -4.1751  -0.3171   3.4729   3.8942   4.0511

          k = 0.0929 0.0536 0.0000 (138779 PWs)   bands (ev):

   -29.3239 -28.8498 -20.0532 -12.7546  -9.9086  -8.6703  -8.2863  -7.0732
    -6.9549  -4.4959  -4.1476  -0.3737   3.4649   3.8548   3.9675

          k = 0.0857 0.0495 0.0000 (138761 PWs)   bands (ev):

   -29.3348 -28.8575 -20.0728 -12.7646  -9.8984  -8.5909  -8.2599  -7.0516
    -6.9501  -4.4248  -4.1213  -0.4288   3.4572   3.8179   3.8888

          k = 0.0786 0.0454 0.0000 (138765 PWs)   bands (ev):

   -29.3448 -28.8647 -20.0908 -12.7740  -9.8893  -8.5164  -8.2353  -7.0315
    -6.9458  -4.3569  -4.0964  -0.4818   3.4500   3.7836   3.8152

          k = 0.0714 0.0412 0.0000 (138767 PWs)   bands (ev):

   -29.3540 -28.8712 -20.1073 -12.7826  -9.8811  -8.4472  -8.2125  -7.0130
    -6.9419  -4.2929  -4.0731  -0.5324   3.4431   3.7469   3.7518

          k = 0.0643 0.0371 0.0000 (138761 PWs)   bands (ev):

   -29.3624 -28.8772 -20.1222 -12.7904  -9.8738  -8.3835  -8.1916  -6.9962
    -6.9384  -4.2330  -4.0514  -0.5802   3.4368   3.6843   3.7227

          k = 0.0571 0.0330 0.0000 (138763 PWs)   bands (ev):

   -29.3699 -28.8826 -20.1355 -12.7975  -9.8673  -8.3257  -8.1728  -6.9810
    -6.9352  -4.1777  -4.0315  -0.6247   3.4310   3.6276   3.6961

          k = 0.0500 0.0289 0.0000 (138773 PWs)   bands (ev):

   -29.3766 -28.8874 -20.1473 -12.8037  -9.8617  -8.2740  -8.1560  -6.9676
    -6.9325  -4.1274  -4.0136  -0.6654   3.4257   3.5770   3.6723

          k = 0.0429 0.0247 0.0000 (138775 PWs)   bands (ev):

   -29.3824 -28.8915 -20.1575 -12.8092  -9.8569  -8.2286  -8.1413  -6.9560
    -6.9301  -4.0827  -3.9978  -0.7019   3.4210   3.5326   3.6513

          k = 0.0357 0.0206 0.0000 (138789 PWs)   bands (ev):

   -29.3873 -28.8951 -20.1661 -12.8139  -9.8528  -8.1898  -8.1288  -6.9461
    -6.9281  -4.0440  -3.9842  -0.7337   3.4170   3.4948   3.6332

          k = 0.0286 0.0165 0.0000 (138797 PWs)   bands (ev):

   -29.3913 -28.8979 -20.1732 -12.8177  -9.8495  -8.1577  -8.1186  -6.9380
    -6.9264  -4.0116  -3.9729  -0.7604   3.4136   3.4636   3.6181

          k = 0.0214 0.0124 0.0000 (138823 PWs)   bands (ev):

   -29.3945 -28.9002 -20.1787 -12.8206  -9.8470  -8.1326  -8.1105  -6.9317
    -6.9252  -3.9860  -3.9640  -0.7817   3.4110   3.4392   3.6062

          k = 0.0143 0.0082 0.0000 (138807 PWs)   bands (ev):

   -29.3967 -28.9018 -20.1826 -12.8228  -9.8452  -8.1146  -8.1048  -6.9272
    -6.9243  -3.9674  -3.9576  -0.7971   3.4092   3.4217   3.5976

          k = 0.0071 0.0041 0.0000 (138827 PWs)   bands (ev):

   -29.3981 -28.9028 -20.1849 -12.8241  -9.8441  -8.1038  -8.1013  -6.9245
    -6.9237  -3.9562  -3.9537  -0.8064   3.4080   3.4112   3.5924

          k = 0.0000 0.0000 0.0000 (138795 PWs)   bands (ev):

   -29.3985 -28.9031 -20.1857 -12.8245  -9.8438  -8.1001  -8.1001  -6.9236
    -6.9236  -3.9525  -3.9525  -0.8095   3.4077   3.4077   3.5906

     Writing all to output data dir ../tmp/fgc.save/

     init_run     :      1.90s CPU      2.48s WALL (       1 calls)
     electrons    :   2177.59s CPU   3904.29s WALL (       1 calls)

     Called by init_run:
     wfcinit      :      0.04s CPU      0.03s WALL (       1 calls)
     wfcinit:atom :      0.35s CPU      0.60s WALL (      31 calls)
     wfcinit:wfcr :     30.96s CPU     48.62s WALL (      31 calls)
     potinit      :      0.41s CPU      0.50s WALL (       1 calls)
     hinit0       :      0.84s CPU      0.88s WALL (       1 calls)

     Called by electrons:
     c_bands      :   2177.49s CPU   3904.19s WALL (       1 calls)
     v_of_rho     :      0.36s CPU      0.42s WALL (       1 calls)
     v_h          :      0.03s CPU      0.03s WALL (       1 calls)
     v_xc         :      0.33s CPU      0.39s WALL (       1 calls)
     newd         :      0.20s CPU      0.62s WALL (       1 calls)

     Called by c_bands:
     init_us_2    :      0.25s CPU      0.35s WALL (      31 calls)
     init_us_2:cp :      0.25s CPU      0.35s WALL (      31 calls)
     cegterg      :   2007.78s CPU   3590.46s WALL (     128 calls)

     Called by sum_band:

     Called by *egterg:
     cdiaghg      :    140.47s CPU    237.83s WALL (    2273 calls)
     cegterg:over :    400.97s CPU    609.21s WALL (    2242 calls)
     cegterg:upda :     44.81s CPU     79.51s WALL (    2242 calls)
     cegterg:last :     50.99s CPU     68.87s WALL (     956 calls)
     h_psi        :   1162.39s CPU   2295.89s WALL (    2401 calls)
     s_psi        :     22.96s CPU     31.65s WALL (    2401 calls)
     g_psi        :      2.01s CPU      1.55s WALL (    2242 calls)

     Called by h_psi:
     h_psi:calbec :    364.50s CPU    574.14s WALL (    2401 calls)
     vloc_psi     :    743.27s CPU   1609.96s WALL (    2401 calls)
     add_vuspsi   :     51.73s CPU    106.82s WALL (    2401 calls)

     General routines
     calbec       :    364.49s CPU    574.13s WALL (    2401 calls)
     fft          :      0.55s CPU      0.58s WALL (      12 calls)
     fftw         :    707.79s CPU   1541.29s WALL (   31336 calls)
     davcio       :      0.27s CPU      0.46s WALL (      62 calls)

     Parallel routines

     PWSCF        :  36m20.00s CPU      1h 5m WALL


   This run was terminated on:  17:36:43  24Feb2024            

=------------------------------------------------------------------------------=
   JOB DONE.
=------------------------------------------------------------------------------=
