
     Program PROJWFC v.7.1 starts on 24Feb2024 at 17:40:21 

     This program is part of the open-source Quantum ESPRESSO suite
     for quantum simulation of materials; please cite
         "P. Giannozzi et al., J. Phys.:Condens. Matter 21 395502 (2009);
         "P. Giannozzi et al., J. Phys.:Condens. Matter 29 465901 (2017);
         "P. Giannozzi et al., J. Chem. Phys. 152 154105 (2020);
          URL http://www.quantum-espresso.org", 
     in publications or presentations arising from this work. More details at
     http://www.quantum-espresso.org/quote

     Parallel version (MPI), running on     8 processors

     MPI processes distributed on     1 nodes
     R & G space division:  proc/nbgrp/npool/nimage =       8
     241246 MiB available memory on the printing compute node when the environment starts


     Reading xml data from directory:

     ../tmp/fgc.save/

     IMPORTANT: XC functional enforced from input :
     Exchange-correlation= PBE
                           (   1   4   3   4   0   0   0)
     Any further DFT definition will be discarded
     Please, verify this is what you really want


     Parallelization info
     --------------------
     sticks:   dense  smooth     PW     G-vecs:    dense   smooth      PW
     Min         416     416    114               138498   138498   19368
     Max         417     417    115               138521   138521   19383
     Sum        3331    3331    913              1108055  1108055  154987

     Using Slab Decomposition


     negative rho (up, down):  5.457E-06 0.000E+00

     Gaussian broadening (read from file): ngauss,degauss=  -1    0.001000


     Calling projwave .... 
     Subspace diagonalization in iterative solution of the eigenvalue problem:
     a serial algorithm will be used


  Problem Sizes 
  natomwfc =           16
  nbnd     =           15
  nkstot   =          181
  npwx     =        17346
  nkb      =           32


     Atomic states used for projection
     (read from pseudopotential files):

     state #   1: atom   1 (C  ), wfc  1 (l=0 m= 1)
     state #   2: atom   1 (C  ), wfc  2 (l=1 m= 1)
     state #   3: atom   1 (C  ), wfc  2 (l=1 m= 2)
     state #   4: atom   1 (C  ), wfc  2 (l=1 m= 3)
     state #   5: atom   2 (C  ), wfc  1 (l=0 m= 1)
     state #   6: atom   2 (C  ), wfc  2 (l=1 m= 1)
     state #   7: atom   2 (C  ), wfc  2 (l=1 m= 2)
     state #   8: atom   2 (C  ), wfc  2 (l=1 m= 3)
     state #   9: atom   3 (F  ), wfc  1 (l=0 m= 1)
     state #  10: atom   3 (F  ), wfc  2 (l=1 m= 1)
     state #  11: atom   3 (F  ), wfc  2 (l=1 m= 2)
     state #  12: atom   3 (F  ), wfc  2 (l=1 m= 3)
     state #  13: atom   4 (F  ), wfc  1 (l=0 m= 1)
     state #  14: atom   4 (F  ), wfc  2 (l=1 m= 1)
     state #  15: atom   4 (F  ), wfc  2 (l=1 m= 2)
     state #  16: atom   4 (F  ), wfc  2 (l=1 m= 3)

 k =   0.0000000000  0.0000000000  0.0000000000
==== e(   1) =   -29.39851 eV ==== 
     psi = 0.343*[#   9]+0.343*[#  13]+0.124*[#   1]+0.124*[#   5]+0.017*[#  10]
          +0.017*[#  14]+0.014*[#   2]+0.014*[#   6]
    |psi|^2 = 0.996
==== e(   2) =   -28.90311 eV ==== 
     psi = 0.354*[#   9]+0.354*[#  13]+0.016*[#   1]+0.016*[#   5]
    |psi|^2 = 0.741
==== e(   3) =   -20.18573 eV ==== 
     psi = 0.298*[#   1]+0.298*[#   5]+0.115*[#   2]+0.115*[#   6]+0.105*[#   9]
          +0.105*[#  13]+0.011*[#  10]+0.011*[#  14]
    |psi|^2 = 1.058
==== e(   4) =   -12.82449 eV ==== 
     psi = 0.079*[#   9]+0.079*[#  13]+0.021*[#   1]+0.021*[#   5]
    |psi|^2 = 0.200
==== e(   5) =    -9.84375 eV ==== 
     psi = 0.376*[#  10]+0.376*[#  14]+0.086*[#   2]+0.086*[#   6]+0.021*[#   1]
          +0.021*[#   5]+0.013*[#   9]+0.013*[#  13]
    |psi|^2 = 0.991
==== e(   6) =    -8.10014 eV ==== 
     psi = 0.144*[#  11]+0.144*[#  12]+0.144*[#  15]+0.144*[#  16]+0.106*[#   3]
          +0.106*[#   4]+0.106*[#   7]+0.106*[#   8]
    |psi|^2 = 0.999
==== e(   7) =    -8.10014 eV ==== 
     psi = 0.144*[#  11]+0.144*[#  12]+0.144*[#  15]+0.144*[#  16]+0.106*[#   3]
          +0.106*[#   4]+0.106*[#   7]+0.106*[#   8]
    |psi|^2 = 0.999
==== e(   8) =    -6.92356 eV ==== 
     psi = 0.236*[#  11]+0.236*[#  12]+0.236*[#  15]+0.236*[#  16]+0.216*[#  10]
          +0.216*[#  14]+0.158*[#   2]+0.158*[#   6]+0.013*[#   3]+0.013*[#   4]
          +0.013*[#   7]+0.013*[#   8]
    |psi|^2 = 1.746
==== e(   9) =    -6.92356 eV ==== 
     psi = 0.236*[#  11]+0.236*[#  12]+0.236*[#  15]+0.236*[#  16]+0.013*[#   3]
          +0.013*[#   4]+0.013*[#   7]+0.013*[#   8]
    |psi|^2 = 0.997
==== e(  10) =    -3.95246 eV ==== 
     psi = 0.355*[#  10]+0.355*[#  14]+0.143*[#   3]+0.143*[#   4]+0.143*[#   7]
          +0.143*[#   8]+0.105*[#  11]+0.105*[#  12]+0.105*[#  15]+0.105*[#  16]
          +0.019*[#   2]+0.019*[#   6]
    |psi|^2 = 1.743
==== e(  11) =    -3.95246 eV ==== 
     psi = 0.143*[#   3]+0.143*[#   4]+0.143*[#   7]+0.143*[#   8]+0.105*[#  11]
          +0.105*[#  12]+0.105*[#  15]+0.105*[#  16]
    |psi|^2 = 0.995
==== e(  12) =    -0.80955 eV ==== 
     psi = 0.215*[#   2]+0.215*[#   6]+0.158*[#  10]+0.158*[#  14]+0.056*[#   9]
          +0.056*[#  13]+0.011*[#   1]+0.011*[#   5]
    |psi|^2 = 0.879
==== e(  13) =     3.40767 eV ==== 
     psi = 0.228*[#   3]+0.228*[#   4]+0.228*[#   7]+0.228*[#   8]+0.012*[#  11]
          +0.012*[#  12]+0.012*[#  15]+0.012*[#  16]
    |psi|^2 = 0.960
==== e(  14) =     3.40767 eV ==== 
     psi = 0.228*[#   3]+0.228*[#   4]+0.228*[#   7]+0.228*[#   8]+0.012*[#  11]
          +0.012*[#  12]+0.012*[#  15]+0.012*[#  16]
    |psi|^2 = 0.960
==== e(  15) =     3.59065 eV ==== 
     psi = 0.019*[#   2]+0.019*[#   6]+0.003*[#   1]+0.003*[#   5]+0.003*[#  10]
          +0.003*[#  14]+0.002*[#   9]+0.002*[#  13]
    |psi|^2 = 0.053

 k =   0.0047619048  0.0082478610  0.0000000000
==== e(   1) =   -29.39791 eV ==== 
     psi = 0.343*[#   9]+0.343*[#  13]+0.124*[#   1]+0.124*[#   5]+0.017*[#  10]
          +0.017*[#  14]+0.014*[#   2]+0.014*[#   6]
    |psi|^2 = 0.996
==== e(   2) =   -28.90268 eV ==== 
     psi = 0.354*[#   9]+0.354*[#  13]+0.016*[#   1]+0.016*[#   5]
    |psi|^2 = 0.741
==== e(   3) =   -20.18468 eV ==== 
     psi = 0.297*[#   1]+0.297*[#   5]+0.115*[#   2]+0.115*[#   6]+0.105*[#   9]
          +0.105*[#  13]+0.011*[#  10]+0.011*[#  14]
    |psi|^2 = 1.058
==== e(   4) =   -12.82392 eV ==== 
     psi = 0.079*[#   9]+0.079*[#  13]+0.021*[#   1]+0.021*[#   5]
    |psi|^2 = 0.200
==== e(   5) =    -9.84423 eV ==== 
     psi = 0.376*[#  10]+0.376*[#  14]+0.086*[#   2]+0.086*[#   6]+0.021*[#   1]
          +0.021*[#   5]+0.013*[#   9]+0.013*[#  13]
    |psi|^2 = 0.991
==== e(   6) =    -8.10497 eV ==== 
     psi = 0.144*[#  11]+0.144*[#  12]+0.144*[#  15]+0.144*[#  16]+0.106*[#   3]
          +0.106*[#   4]+0.106*[#   7]+0.106*[#   8]
    |psi|^2 = 0.998
==== e(   7) =    -8.10168 eV ==== 
     psi = 0.144*[#  11]+0.144*[#  12]+0.144*[#  15]+0.144*[#  16]+0.106*[#   3]
          +0.106*[#   4]+0.106*[#   7]+0.106*[#   8]
    |psi|^2 = 0.999
==== e(   8) =    -6.92476 eV ==== 
     psi = 0.236*[#  11]+0.236*[#  12]+0.236*[#  15]+0.236*[#  16]+0.072*[#  10]
          +0.072*[#  14]+0.053*[#   2]+0.053*[#   6]+0.013*[#   3]+0.013*[#   4]
          +0.013*[#   7]+0.013*[#   8]
    |psi|^2 = 1.247
==== e(   9) =    -6.92380 eV ==== 
     psi = 0.236*[#  11]+0.236*[#  12]+0.236*[#  15]+0.236*[#  16]+0.013*[#   3]
          +0.013*[#   4]+0.013*[#   7]+0.013*[#   8]
    |psi|^2 = 0.997
==== e(  10) =    -3.95746 eV ==== 
     psi = 0.354*[#  10]+0.354*[#  14]+0.143*[#   3]+0.143*[#   4]+0.143*[#   7]
          +0.143*[#   8]+0.106*[#  11]+0.106*[#  12]+0.106*[#  15]+0.106*[#  16]
          +0.019*[#   2]+0.019*[#   6]
    |psi|^2 = 1.742
==== e(  11) =    -3.95418 eV ==== 
     psi = 0.143*[#   3]+0.143*[#   4]+0.143*[#   7]+0.143*[#   8]+0.105*[#  11]
          +0.105*[#  12]+0.105*[#  15]+0.105*[#  16]
    |psi|^2 = 0.995
==== e(  12) =    -0.80537 eV ==== 
     psi = 0.072*[#   2]+0.072*[#   6]+0.056*[#   9]+0.056*[#  13]+0.053*[#  10]
          +0.053*[#  14]+0.011*[#   1]+0.011*[#   5]
    |psi|^2 = 0.382
==== e(  13) =     3.40817 eV ==== 
     psi = 0.227*[#   3]+0.227*[#   4]+0.227*[#   7]+0.227*[#   8]+0.012*[#  11]
          +0.012*[#  12]+0.012*[#  15]+0.012*[#  16]
    |psi|^2 = 0.958
==== e(  14) =     3.41235 eV ==== 
     psi = 0.228*[#   3]+0.228*[#   4]+0.228*[#   7]+0.228*[#   8]+0.012*[#  11]
          +0.012*[#  12]+0.012*[#  15]+0.012*[#  16]
    |psi|^2 = 0.960
==== e(  15) =     3.59297 eV ==== 
     psi = 0.019*[#   2]+0.019*[#   6]+0.003*[#   1]+0.003*[#   5]+0.003*[#  10]
          +0.003*[#  14]+0.002*[#   9]+0.002*[#  13]
    |psi|^2 = 0.055

 k =   0.0095238095  0.0164957220  0.0000000000
==== e(   1) =   -29.39611 eV ==== 
     psi = 0.343*[#   9]+0.343*[#  13]+0.123*[#   1]+0.123*[#   5]+0.017*[#  10]
          +0.017*[#  14]+0.014*[#   2]+0.014*[#   6]
    |psi|^2 = 0.996
==== e(   2) =   -28.90138 eV ==== 
     psi = 0.354*[#   9]+0.354*[#  13]+0.016*[#   1]+0.016*[#   5]
    |psi|^2 = 0.741
==== e(   3) =   -20.18155 eV ==== 
     psi = 0.297*[#   1]+0.297*[#   5]+0.115*[#   2]+0.115*[#   6]+0.105*[#   9]
          +0.105*[#  13]+0.011*[#  10]+0.011*[#  14]
    |psi|^2 = 1.058
==== e(   4) =   -12.82221 eV ==== 
     psi = 0.078*[#   9]+0.078*[#  13]+0.022*[#   1]+0.022*[#   5]
    |psi|^2 = 0.200
==== e(   5) =    -9.84568 eV ==== 
     psi = 0.375*[#  10]+0.375*[#  14]+0.086*[#   2]+0.086*[#   6]+0.021*[#   1]
          +0.021*[#   5]+0.013*[#   9]+0.013*[#  13]
    |psi|^2 = 0.991
==== e(   6) =    -8.11942 eV ==== 
     psi = 0.143*[#  11]+0.143*[#  12]+0.143*[#  15]+0.143*[#  16]+0.106*[#   3]
          +0.106*[#   4]+0.106*[#   7]+0.106*[#   8]
    |psi|^2 = 0.998
==== e(   7) =    -8.10631 eV ==== 
     psi = 0.144*[#  11]+0.144*[#  12]+0.144*[#  15]+0.144*[#  16]+0.106*[#   3]
          +0.106*[#   4]+0.106*[#   7]+0.106*[#   8]
    |psi|^2 = 0.999
==== e(   8) =    -6.92835 eV ==== 
     psi = 0.236*[#  11]+0.236*[#  12]+0.236*[#  15]+0.236*[#  16]+0.072*[#  10]
          +0.072*[#  14]+0.053*[#   2]+0.053*[#   6]+0.013*[#   3]+0.013*[#   4]
          +0.013*[#   7]+0.013*[#   8]
    |psi|^2 = 1.246
==== e(   9) =    -6.92454 eV ==== 
     psi = 0.236*[#  11]+0.236*[#  12]+0.236*[#  15]+0.236*[#  16]+0.013*[#   3]
          +0.013*[#   4]+0.013*[#   7]+0.013*[#   8]
    |psi|^2 = 0.997
==== e(  10) =    -3.97239 eV ==== 
     psi = 0.354*[#  10]+0.354*[#  14]+0.142*[#   3]+0.142*[#   4]+0.142*[#   7]
          +0.142*[#   8]+0.106*[#  11]+0.106*[#  12]+0.106*[#  15]+0.106*[#  16]
          +0.019*[#   2]+0.019*[#   6]
    |psi|^2 = 1.741
==== e(  11) =    -3.95933 eV ==== 
     psi = 0.143*[#   3]+0.143*[#   4]+0.143*[#   7]+0.143*[#   8]+0.106*[#  11]
          +0.106*[#  12]+0.106*[#  15]+0.106*[#  16]
    |psi|^2 = 0.995
==== e(  12) =    -0.79294 eV ==== 
     psi = 0.071*[#   2]+0.071*[#   6]+0.056*[#   9]+0.056*[#  13]+0.053*[#  10]
          +0.053*[#  14]+0.010*[#   1]+0.010*[#   5]
    |psi|^2 = 0.383
==== e(  13) =     3.40973 eV ==== 
     psi = 0.225*[#   3]+0.225*[#   4]+0.225*[#   7]+0.225*[#   8]+0.012*[#  11]
          +0.012*[#  12]+0.012*[#  15]+0.012*[#  16]+0.001*[#   1]+0.001*[#   5]
          
    |psi|^2 = 0.951
==== e(  14) =     3.42633 eV ==== 
     psi = 0.228*[#   3]+0.228*[#   4]+0.228*[#   7]+0.228*[#   8]+0.012*[#  11]
          +0.012*[#  12]+0.012*[#  15]+0.012*[#  16]
    |psi|^2 = 0.960
==== e(  15) =     3.59990 eV ==== 
     psi = 0.019*[#   2]+0.019*[#   6]+0.003*[#   1]+0.003*[#   5]+0.003*[#  10]
          +0.003*[#  14]+0.002*[#   9]+0.002*[#  13]+0.002*[#   3]+0.002*[#   4]
          +0.002*[#   7]+0.002*[#   8]
    |psi|^2 = 0.061

 k =   0.0142857143  0.0247435829  0.0000000000
==== e(   1) =   -29.39312 eV ==== 
     psi = 0.343*[#   9]+0.343*[#  13]+0.123*[#   1]+0.123*[#   5]+0.017*[#  10]
          +0.017*[#  14]+0.014*[#   2]+0.014*[#   6]
    |psi|^2 = 0.996
==== e(   2) =   -28.89923 eV ==== 
     psi = 0.354*[#   9]+0.354*[#  13]+0.016*[#   1]+0.016*[#   5]
    |psi|^2 = 0.742
==== e(   3) =   -20.17632 eV ==== 
     psi = 0.297*[#   1]+0.297*[#   5]+0.115*[#   2]+0.115*[#   6]+0.105*[#   9]
          +0.105*[#  13]+0.011*[#  10]+0.011*[#  14]
    |psi|^2 = 1.058
==== e(   4) =   -12.81937 eV ==== 
     psi = 0.078*[#   9]+0.078*[#  13]+0.022*[#   1]+0.022*[#   5]
    |psi|^2 = 0.200
==== e(   5) =    -9.84809 eV ==== 
     psi = 0.375*[#  10]+0.375*[#  14]+0.086*[#   2]+0.086*[#   6]+0.021*[#   1]
          +0.021*[#   5]+0.013*[#   9]+0.013*[#  13]
    |psi|^2 = 0.991
==== e(   6) =    -8.14336 eV ==== 
     psi = 0.142*[#  11]+0.142*[#  12]+0.142*[#  15]+0.142*[#  16]+0.107*[#   3]
          +0.107*[#   4]+0.107*[#   7]+0.107*[#   8]
    |psi|^2 = 0.997
==== e(   7) =    -8.11403 eV ==== 
     psi = 0.143*[#  11]+0.143*[#  12]+0.143*[#  15]+0.143*[#  16]+0.106*[#   3]
          +0.106*[#   4]+0.106*[#   7]+0.106*[#   8]
    |psi|^2 = 1.000
==== e(   8) =    -6.93429 eV ==== 
     psi = 0.236*[#  11]+0.236*[#  12]+0.236*[#  15]+0.236*[#  16]+0.072*[#  10]
          +0.072*[#  14]+0.054*[#   2]+0.054*[#   6]+0.013*[#   3]+0.013*[#   4]
          +0.013*[#   7]+0.013*[#   8]
    |psi|^2 = 1.246
==== e(   9) =    -6.92581 eV ==== 
     psi = 0.236*[#  11]+0.236*[#  12]+0.236*[#  15]+0.236*[#  16]+0.013*[#   3]
          +0.013*[#   4]+0.013*[#   7]+0.013*[#   8]
    |psi|^2 = 0.997
==== e(  10) =    -3.99692 eV ==== 
     psi = 0.354*[#  10]+0.354*[#  14]+0.141*[#   3]+0.141*[#   4]+0.141*[#   7]
          +0.141*[#   8]+0.107*[#  11]+0.107*[#  12]+0.107*[#  15]+0.107*[#  16]
          +0.019*[#   2]+0.019*[#   6]+0.001*[#   1]+0.001*[#   5]
    |psi|^2 = 1.739
==== e(  11) =    -3.96791 eV ==== 
     psi = 0.143*[#   3]+0.143*[#   4]+0.143*[#   7]+0.143*[#   8]+0.106*[#  11]
          +0.106*[#  12]+0.106*[#  15]+0.106*[#  16]
    |psi|^2 = 0.996
==== e(  12) =    -0.77252 eV ==== 
     psi = 0.071*[#   2]+0.071*[#   6]+0.056*[#   9]+0.056*[#  13]+0.054*[#  10]
          +0.054*[#  14]+0.010*[#   1]+0.010*[#   5]+0.001*[#   3]+0.001*[#   4]
          +0.001*[#   7]+0.001*[#   8]
    |psi|^2 = 0.385
==== e(  13) =     3.41247 eV ==== 
     psi = 0.222*[#   3]+0.222*[#   4]+0.222*[#   7]+0.222*[#   8]+0.012*[#  11]
          +0.012*[#  12]+0.012*[#  15]+0.012*[#  16]+0.003*[#   1]+0.003*[#   5]
          
    |psi|^2 = 0.941
==== e(  14) =     3.44937 eV ==== 
     psi = 0.228*[#   3]+0.228*[#   4]+0.228*[#   7]+0.228*[#   8]+0.012*[#  11]
          +0.012*[#  12]+0.012*[#  15]+0.012*[#  16]
    |psi|^2 = 0.960
==== e(  15) =     3.61132 eV ==== 
     psi = 0.019*[#   2]+0.019*[#   6]+0.004*[#   3]+0.004*[#   4]+0.004*[#   7]
          +0.004*[#   8]+0.003*[#  10]+0.003*[#  14]+0.002*[#   1]+0.002*[#   5]
          +0.002*[#   9]+0.002*[#  13]
    |psi|^2 = 0.070

 k =   0.0190476190  0.0329914439  0.0000000000
==== e(   1) =   -29.38893 eV ==== 
     psi = 0.343*[#   9]+0.343*[#  13]+0.122*[#   1]+0.122*[#   5]+0.017*[#  10]
          +0.017*[#  14]+0.014*[#   2]+0.014*[#   6]
    |psi|^2 = 0.996
==== e(   2) =   -28.89623 eV ==== 
     psi = 0.355*[#   9]+0.355*[#  13]+0.017*[#   1]+0.017*[#   5]
    |psi|^2 = 0.743
==== e(   3) =   -20.16899 eV ==== 
     psi = 0.296*[#   1]+0.296*[#   5]+0.115*[#   2]+0.115*[#   6]+0.105*[#   9]
          +0.105*[#  13]+0.011*[#  10]+0.011*[#  14]+0.001*[#   3]+0.001*[#   4]
          +0.001*[#   7]+0.001*[#   8]
    |psi|^2 = 1.058
==== e(   4) =   -12.81541 eV ==== 
     psi = 0.078*[#   9]+0.078*[#  13]+0.022*[#   1]+0.022*[#   5]
    |psi|^2 = 0.200
==== e(   5) =    -9.85149 eV ==== 
     psi = 0.374*[#  10]+0.374*[#  14]+0.085*[#   2]+0.085*[#   6]+0.020*[#   1]
          +0.020*[#   5]+0.013*[#   9]+0.013*[#  13]
    |psi|^2 = 0.991
==== e(   6) =    -8.17657 eV ==== 
     psi = 0.141*[#  11]+0.141*[#  12]+0.141*[#  15]+0.141*[#  16]+0.107*[#   3]
          +0.107*[#   4]+0.107*[#   7]+0.107*[#   8]+0.001*[#   1]+0.001*[#   5]
          
    |psi|^2 = 0.996
==== e(   7) =    -8.12485 eV ==== 
     psi = 0.143*[#  11]+0.143*[#  12]+0.143*[#  15]+0.143*[#  16]+0.107*[#   3]
          +0.107*[#   4]+0.107*[#   7]+0.107*[#   8]+0.001*[#   2]+0.001*[#   6]
          
    |psi|^2 = 1.002
==== e(   8) =    -6.94251 eV ==== 
     psi = 0.236*[#  11]+0.236*[#  12]+0.236*[#  15]+0.236*[#  16]+0.071*[#  10]
          +0.071*[#  14]+0.054*[#   2]+0.054*[#   6]+0.012*[#   3]+0.012*[#   4]
          +0.012*[#   7]+0.012*[#   8]
    |psi|^2 = 1.245
==== e(   9) =    -6.92768 eV ==== 
     psi = 0.236*[#  11]+0.236*[#  12]+0.236*[#  15]+0.236*[#  16]+0.013*[#   3]
          +0.013*[#   4]+0.013*[#   7]+0.013*[#   8]
    |psi|^2 = 0.997
==== e(  10) =    -4.03058 eV ==== 
     psi = 0.353*[#  10]+0.353*[#  14]+0.138*[#   3]+0.138*[#   4]+0.138*[#   7]
          +0.138*[#   8]+0.108*[#  11]+0.108*[#  12]+0.108*[#  15]+0.108*[#  16]
          +0.019*[#   2]+0.019*[#   6]+0.003*[#   1]+0.003*[#   5]
    |psi|^2 = 1.737
==== e(  11) =    -3.97988 eV ==== 
     psi = 0.142*[#   3]+0.142*[#   4]+0.142*[#   7]+0.142*[#   8]+0.107*[#  11]
          +0.107*[#  12]+0.107*[#  15]+0.107*[#  16]
    |psi|^2 = 0.997
==== e(  12) =    -0.74452 eV ==== 
     psi = 0.070*[#   2]+0.070*[#   6]+0.056*[#   9]+0.056*[#  13]+0.055*[#  10]
          +0.055*[#  14]+0.009*[#   1]+0.009*[#   5]+0.002*[#   3]+0.002*[#   4]
          +0.002*[#   7]+0.002*[#   8]
    |psi|^2 = 0.387
==== e(  13) =     3.41656 eV ==== 
     psi = 0.218*[#   3]+0.218*[#   4]+0.218*[#   7]+0.218*[#   8]+0.012*[#  11]
          +0.012*[#  12]+0.012*[#  15]+0.012*[#  16]+0.005*[#   1]+0.005*[#   5]
          
    |psi|^2 = 0.930
==== e(  14) =     3.48107 eV ==== 
     psi = 0.227*[#   3]+0.227*[#   4]+0.227*[#   7]+0.227*[#   8]+0.012*[#  11]
          +0.012*[#  12]+0.012*[#  15]+0.012*[#  16]
    |psi|^2 = 0.959
==== e(  15) =     3.62709 eV ==== 
     psi = 0.019*[#   2]+0.019*[#   6]+0.007*[#   3]+0.007*[#   4]+0.007*[#   7]
          +0.007*[#   8]+0.002*[#  10]+0.002*[#  14]+0.002*[#   9]+0.002*[#  13]
          +0.002*[#   1]+0.002*[#   5]
    |psi|^2 = 0.080

 k =   0.0238095238  0.0412393049  0.0000000000
==== e(   1) =   -29.38356 eV ==== 
     psi = 0.343*[#   9]+0.343*[#  13]+0.122*[#   1]+0.122*[#   5]+0.017*[#  10]
          +0.017*[#  14]+0.014*[#   2]+0.014*[#   6]
    |psi|^2 = 0.996
==== e(   2) =   -28.89238 eV ==== 
     psi = 0.355*[#   9]+0.355*[#  13]+0.017*[#   1]+0.017*[#   5]
    |psi|^2 = 0.744
==== e(   3) =   -20.15958 eV ==== 
     psi = 0.295*[#   1]+0.295*[#   5]+0.115*[#   2]+0.115*[#   6]+0.105*[#   9]
          +0.105*[#  13]+0.011*[#  10]+0.011*[#  14]+0.002*[#   3]+0.002*[#   4]
          +0.002*[#   7]+0.002*[#   8]
    |psi|^2 = 1.057
==== e(   4) =   -12.81033 eV ==== 
     psi = 0.078*[#   9]+0.078*[#  13]+0.022*[#   1]+0.022*[#   5]
    |psi|^2 = 0.200
==== e(   5) =    -9.85589 eV ==== 
     psi = 0.374*[#  10]+0.374*[#  14]+0.085*[#   2]+0.085*[#   6]+0.020*[#   1]
          +0.020*[#   5]+0.013*[#   9]+0.013*[#  13]+0.001*[#   3]+0.001*[#   4]
          +0.001*[#   7]+0.001*[#   8]+0.001*[#  11]+0.001*[#  12]+0.001*[#  15]
          +0.001*[#  16]
    |psi|^2 = 0.991
==== e(   6) =    -8.21877 eV ==== 
     psi = 0.139*[#  11]+0.139*[#  12]+0.139*[#  15]+0.139*[#  16]+0.108*[#   3]
          +0.108*[#   4]+0.108*[#   7]+0.108*[#   8]+0.002*[#   1]+0.002*[#   5]
          
    |psi|^2 = 0.995
==== e(   7) =    -8.13878 eV ==== 
     psi = 0.142*[#  11]+0.142*[#  12]+0.142*[#  15]+0.142*[#  16]+0.108*[#   3]
          +0.108*[#   4]+0.108*[#   7]+0.108*[#   8]+0.002*[#   2]+0.002*[#   6]
          
    |psi|^2 = 1.003
==== e(   8) =    -6.95292 eV ==== 
     psi = 0.235*[#  11]+0.235*[#  12]+0.235*[#  15]+0.235*[#  16]+0.071*[#  10]
          +0.071*[#  14]+0.055*[#   2]+0.055*[#   6]+0.012*[#   3]+0.012*[#   4]
          +0.012*[#   7]+0.012*[#   8]+0.001*[#   1]+0.001*[#   5]
    |psi|^2 = 1.244
==== e(   9) =    -6.93022 eV ==== 
     psi = 0.237*[#  11]+0.237*[#  12]+0.237*[#  15]+0.237*[#  16]+0.013*[#   3]
          +0.013*[#   4]+0.013*[#   7]+0.013*[#   8]
    |psi|^2 = 0.997
==== e(  10) =    -4.07276 eV ==== 
     psi = 0.353*[#  10]+0.353*[#  14]+0.136*[#   3]+0.136*[#   4]+0.136*[#   7]
          +0.136*[#   8]+0.110*[#  11]+0.110*[#  12]+0.110*[#  15]+0.110*[#  16]
          +0.019*[#   2]+0.019*[#   6]+0.004*[#   1]+0.004*[#   5]
    |psi|^2 = 1.734
==== e(  11) =    -3.99519 eV ==== 
     psi = 0.141*[#   3]+0.141*[#   4]+0.141*[#   7]+0.141*[#   8]+0.107*[#  11]
          +0.107*[#  12]+0.107*[#  15]+0.107*[#  16]+0.001*[#   2]+0.001*[#   6]
          
    |psi|^2 = 0.998
==== e(  12) =    -0.70949 eV ==== 
     psi = 0.069*[#   2]+0.069*[#   6]+0.056*[#  10]+0.056*[#  14]+0.055*[#   9]
          +0.055*[#  13]+0.009*[#   1]+0.009*[#   5]+0.003*[#   3]+0.003*[#   4]
          +0.003*[#   7]+0.003*[#   8]
    |psi|^2 = 0.389
==== e(  13) =     3.42223 eV ==== 
     psi = 0.214*[#   3]+0.214*[#   4]+0.214*[#   7]+0.214*[#   8]+0.012*[#  11]
          +0.012*[#  12]+0.012*[#  15]+0.012*[#  16]+0.007*[#   1]+0.007*[#   5]
          
    |psi|^2 = 0.918
==== e(  14) =     3.52087 eV ==== 
     psi = 0.227*[#   3]+0.227*[#   4]+0.227*[#   7]+0.227*[#   8]+0.012*[#  11]
          +0.012*[#  12]+0.012*[#  15]+0.012*[#  16]
    |psi|^2 = 0.957
==== e(  15) =     3.64704 eV ==== 
     psi = 0.019*[#   2]+0.019*[#   6]+0.010*[#   3]+0.010*[#   4]+0.010*[#   7]
          +0.010*[#   8]+0.002*[#   9]+0.002*[#  10]+0.002*[#  13]+0.002*[#  14]
          +0.001*[#   1]+0.001*[#   5]
    |psi|^2 = 0.090

 k =   0.0285714285  0.0494871659  0.0000000000
==== e(   1) =   -29.37702 eV ==== 
     psi = 0.343*[#   9]+0.343*[#  13]+0.121*[#   1]+0.121*[#   5]+0.017*[#  10]
          +0.017*[#  14]+0.014*[#   2]+0.014*[#   6]+0.001*[#   3]+0.001*[#   4]
          +0.001*[#   7]+0.001*[#   8]
    |psi|^2 = 0.996
==== e(   2) =   -28.88769 eV ==== 
     psi = 0.355*[#   9]+0.355*[#  13]+0.017*[#   1]+0.017*[#   5]
    |psi|^2 = 0.745
==== e(   3) =   -20.14808 eV ==== 
     psi = 0.294*[#   1]+0.294*[#   5]+0.114*[#   2]+0.114*[#   6]+0.105*[#   9]
          +0.105*[#  13]+0.011*[#  10]+0.011*[#  14]+0.002*[#   3]+0.002*[#   4]
          +0.002*[#   7]+0.002*[#   8]
    |psi|^2 = 1.057
==== e(   4) =   -12.80416 eV ==== 
     psi = 0.078*[#   9]+0.078*[#  13]+0.022*[#   1]+0.022*[#   5]
    |psi|^2 = 0.200
==== e(   5) =    -9.86131 eV ==== 
     psi = 0.373*[#  10]+0.373*[#  14]+0.085*[#   2]+0.085*[#   6]+0.019*[#   1]
          +0.019*[#   5]+0.013*[#   9]+0.013*[#  13]+0.002*[#   3]+0.002*[#   4]
          +0.002*[#   7]+0.002*[#   8]+0.002*[#  11]+0.002*[#  12]+0.002*[#  15]
          +0.002*[#  16]
    |psi|^2 = 0.991
==== e(   6) =    -8.26962 eV ==== 
     psi = 0.137*[#  11]+0.137*[#  12]+0.137*[#  15]+0.137*[#  16]+0.109*[#   3]
          +0.109*[#   4]+0.109*[#   7]+0.109*[#   8]+0.002*[#   1]+0.002*[#   5]
          
    |psi|^2 = 0.994
==== e(   7) =    -8.15583 eV ==== 
     psi = 0.141*[#  11]+0.141*[#  12]+0.141*[#  15]+0.141*[#  16]+0.108*[#   3]
          +0.108*[#   4]+0.108*[#   7]+0.108*[#   8]+0.003*[#   2]+0.003*[#   6]
          
    |psi|^2 = 1.005
==== e(   8) =    -6.96544 eV ==== 
     psi = 0.235*[#  11]+0.235*[#  12]+0.235*[#  15]+0.235*[#  16]+0.070*[#  10]
          +0.070*[#  14]+0.056*[#   2]+0.056*[#   6]+0.012*[#   3]+0.012*[#   4]
          +0.012*[#   7]+0.012*[#   8]+0.002*[#   1]+0.002*[#   5]
    |psi|^2 = 1.243
==== e(   9) =    -6.93353 eV ==== 
     psi = 0.237*[#  11]+0.237*[#  12]+0.237*[#  15]+0.237*[#  16]+0.013*[#   3]
          +0.013*[#   4]+0.013*[#   7]+0.013*[#   8]
    |psi|^2 = 0.997
==== e(  10) =    -4.12273 eV ==== 
     psi = 0.352*[#  10]+0.352*[#  14]+0.133*[#   3]+0.133*[#   4]+0.133*[#   7]
          +0.133*[#   8]+0.112*[#  11]+0.112*[#  12]+0.112*[#  15]+0.112*[#  16]
          +0.019*[#   2]+0.019*[#   6]+0.005*[#   1]+0.005*[#   5]
    |psi|^2 = 1.731
==== e(  11) =    -4.01380 eV ==== 
     psi = 0.140*[#   3]+0.140*[#   4]+0.140*[#   7]+0.140*[#   8]+0.108*[#  11]
          +0.108*[#  12]+0.108*[#  15]+0.108*[#  16]+0.002*[#   2]+0.002*[#   6]
          
    |psi|^2 = 0.999
==== e(  12) =    -0.66804 eV ==== 
     psi = 0.068*[#   2]+0.068*[#   6]+0.057*[#  10]+0.057*[#  14]+0.055*[#   9]
          +0.055*[#  13]+0.008*[#   1]+0.008*[#   5]+0.003*[#   3]+0.003*[#   4]
          +0.003*[#   7]+0.003*[#   8]
    |psi|^2 = 0.392
==== e(  13) =     3.42966 eV ==== 
     psi = 0.209*[#   3]+0.209*[#   4]+0.209*[#   7]+0.209*[#   8]+0.012*[#  11]
          +0.012*[#  12]+0.012*[#  15]+0.012*[#  16]+0.010*[#   1]+0.010*[#   5]
          
    |psi|^2 = 0.906
==== e(  14) =     3.56799 eV ==== 
     psi = 0.225*[#   3]+0.225*[#   4]+0.225*[#   7]+0.225*[#   8]+0.012*[#  11]
          +0.012*[#  12]+0.012*[#  15]+0.012*[#  16]+0.001*[#   1]+0.001*[#   5]
          
    |psi|^2 = 0.952
==== e(  15) =     3.67102 eV ==== 
     psi = 0.019*[#   2]+0.019*[#   6]+0.012*[#   3]+0.012*[#   4]+0.012*[#   7]
          +0.012*[#   8]+0.002*[#   9]+0.002*[#  10]+0.002*[#  13]+0.002*[#  14]
          +0.001*[#   1]+0.001*[#   5]
    |psi|^2 = 0.099

 k =   0.0333333333  0.0577350269  0.0000000000
==== e(   1) =   -29.36931 eV ==== 
     psi = 0.344*[#   9]+0.344*[#  13]+0.120*[#   1]+0.120*[#   5]+0.017*[#  10]
          +0.017*[#  14]+0.014*[#   2]+0.014*[#   6]+0.002*[#   3]+0.002*[#   4]
          +0.002*[#   7]+0.002*[#   8]
    |psi|^2 = 0.996
==== e(   2) =   -28.88218 eV ==== 
     psi = 0.355*[#   9]+0.355*[#  13]+0.017*[#   1]+0.017*[#   5]
    |psi|^2 = 0.746
==== e(   3) =   -20.13448 eV ==== 
     psi = 0.293*[#   1]+0.293*[#   5]+0.114*[#   2]+0.114*[#   6]+0.104*[#   9]
          +0.104*[#  13]+0.011*[#  10]+0.011*[#  14]+0.003*[#   3]+0.003*[#   4]
          +0.003*[#   7]+0.003*[#   8]
    |psi|^2 = 1.057
==== e(   4) =   -12.79691 eV ==== 
     psi = 0.078*[#   9]+0.078*[#  13]+0.022*[#   1]+0.022*[#   5]
    |psi|^2 = 0.200
==== e(   5) =    -9.86778 eV ==== 
     psi = 0.372*[#  10]+0.372*[#  14]+0.085*[#   2]+0.085*[#   6]+0.018*[#   1]
          +0.018*[#   5]+0.012*[#   9]+0.012*[#  13]+0.002*[#   3]+0.002*[#   4]
          +0.002*[#   7]+0.002*[#   8]+0.002*[#  11]+0.002*[#  12]+0.002*[#  15]
          +0.002*[#  16]
    |psi|^2 = 0.992
==== e(   6) =    -8.32871 eV ==== 
     psi = 0.135*[#  11]+0.135*[#  12]+0.135*[#  15]+0.135*[#  16]+0.110*[#   3]
          +0.110*[#   4]+0.110*[#   7]+0.110*[#   8]+0.003*[#   1]+0.003*[#   5]
          +0.001*[#   2]+0.001*[#   6]+0.001*[#  10]+0.001*[#  14]
    |psi|^2 = 0.993
==== e(   7) =    -8.17601 eV ==== 
     psi = 0.140*[#  11]+0.140*[#  12]+0.140*[#  15]+0.140*[#  16]+0.109*[#   3]
          +0.109*[#   4]+0.109*[#   7]+0.109*[#   8]+0.004*[#   2]+0.004*[#   6]
          
    |psi|^2 = 1.007
==== e(   8) =    -6.97991 eV ==== 
     psi = 0.234*[#  11]+0.234*[#  12]+0.234*[#  15]+0.234*[#  16]+0.070*[#  10]
          +0.070*[#  14]+0.057*[#   2]+0.057*[#   6]+0.012*[#   3]+0.012*[#   4]
          +0.012*[#   7]+0.012*[#   8]+0.002*[#   1]+0.002*[#   5]
    |psi|^2 = 1.241
==== e(   9) =    -6.93769 eV ==== 
     psi = 0.237*[#  11]+0.237*[#  12]+0.237*[#  15]+0.237*[#  16]+0.012*[#   3]
          +0.012*[#   4]+0.012*[#   7]+0.012*[#   8]
    |psi|^2 = 0.997
==== e(  10) =    -4.17973 eV ==== 
     psi = 0.351*[#  10]+0.351*[#  14]+0.130*[#   3]+0.130*[#   4]+0.130*[#   7]
          +0.130*[#   8]+0.114*[#  11]+0.114*[#  12]+0.114*[#  15]+0.114*[#  16]
          +0.019*[#   2]+0.019*[#   6]+0.007*[#   1]+0.007*[#   5]
    |psi|^2 = 1.728
==== e(  11) =    -4.03564 eV ==== 
     psi = 0.139*[#   3]+0.139*[#   4]+0.139*[#   7]+0.139*[#   8]+0.109*[#  11]
          +0.109*[#  12]+0.109*[#  15]+0.109*[#  16]+0.002*[#   2]+0.002*[#   6]
          
    |psi|^2 = 0.999
==== e(  12) =    -0.62081 eV ==== 
     psi = 0.067*[#   2]+0.067*[#   6]+0.059*[#  10]+0.059*[#  14]+0.055*[#   9]
          +0.055*[#  13]+0.007*[#   1]+0.007*[#   5]+0.004*[#   3]+0.004*[#   4]
          +0.004*[#   7]+0.004*[#   8]
    |psi|^2 = 0.395
==== e(  13) =     3.43905 eV ==== 
     psi = 0.205*[#   3]+0.205*[#   4]+0.205*[#   7]+0.205*[#   8]+0.013*[#   1]
          +0.013*[#   5]+0.012*[#  11]+0.012*[#  12]+0.012*[#  15]+0.012*[#  16]
          
    |psi|^2 = 0.895
==== e(  14) =     3.62146 eV ==== 
     psi = 0.223*[#   3]+0.223*[#   4]+0.223*[#   7]+0.223*[#   8]+0.012*[#  11]
          +0.012*[#  12]+0.012*[#  15]+0.012*[#  16]+0.002*[#   1]+0.002*[#   5]
          
    |psi|^2 = 0.943
==== e(  15) =     3.69890 eV ==== 
     psi = 0.019*[#   2]+0.019*[#   6]+0.014*[#   3]+0.014*[#   4]+0.014*[#   7]
          +0.014*[#   8]+0.002*[#   9]+0.002*[#  13]+0.002*[#  10]+0.002*[#  14]
          
    |psi|^2 = 0.108

 k =   0.0380952381  0.0659828878  0.0000000000
==== e(   1) =   -29.36047 eV ==== 
     psi = 0.344*[#   9]+0.344*[#  13]+0.118*[#   1]+0.118*[#   5]+0.017*[#  10]
          +0.017*[#  14]+0.014*[#   2]+0.014*[#   6]+0.002*[#   3]+0.002*[#   4]
          +0.002*[#   7]+0.002*[#   8]
    |psi|^2 = 0.996
==== e(   2) =   -28.87585 eV ==== 
     psi = 0.356*[#   9]+0.356*[#  13]+0.017*[#   1]+0.017*[#   5]+0.001*[#   2]
          +0.001*[#   6]
    |psi|^2 = 0.748
==== e(   3) =   -20.11880 eV ==== 
     psi = 0.291*[#   1]+0.291*[#   5]+0.113*[#   2]+0.113*[#   6]+0.104*[#   9]
          +0.104*[#  13]+0.011*[#  10]+0.011*[#  14]+0.004*[#   3]+0.004*[#   4]
          +0.004*[#   7]+0.004*[#   8]
    |psi|^2 = 1.057
==== e(   4) =   -12.78860 eV ==== 
     psi = 0.078*[#   9]+0.078*[#  13]+0.022*[#   1]+0.022*[#   5]
    |psi|^2 = 0.200
==== e(   5) =    -9.87534 eV ==== 
     psi = 0.370*[#  10]+0.370*[#  14]+0.085*[#   2]+0.085*[#   6]+0.017*[#   1]
          +0.017*[#   5]+0.012*[#   9]+0.012*[#  13]+0.003*[#   3]+0.003*[#   4]
          +0.003*[#   7]+0.003*[#   8]+0.003*[#  11]+0.003*[#  12]+0.003*[#  15]
          +0.003*[#  16]
    |psi|^2 = 0.992
==== e(   6) =    -8.39564 eV ==== 
     psi = 0.132*[#  11]+0.132*[#  12]+0.132*[#  15]+0.132*[#  16]+0.112*[#   3]
          +0.112*[#   4]+0.112*[#   7]+0.112*[#   8]+0.004*[#   1]+0.004*[#   5]
          +0.001*[#   2]+0.001*[#   6]+0.001*[#  10]+0.001*[#  14]+0.001*[#   9]
          +0.001*[#  13]
    |psi|^2 = 0.992
==== e(   7) =    -8.19933 eV ==== 
     psi = 0.139*[#  11]+0.139*[#  12]+0.139*[#  15]+0.139*[#  16]+0.110*[#   3]
          +0.110*[#   4]+0.110*[#   7]+0.110*[#   8]+0.005*[#   2]+0.005*[#   6]
          
    |psi|^2 = 1.009
==== e(   8) =    -6.99622 eV ==== 
     psi = 0.234*[#  11]+0.234*[#  12]+0.234*[#  15]+0.234*[#  16]+0.069*[#  10]
          +0.069*[#  14]+0.058*[#   2]+0.058*[#   6]+0.011*[#   3]+0.011*[#   4]
          +0.011*[#   7]+0.011*[#   8]+0.003*[#   1]+0.003*[#   5]
    |psi|^2 = 1.239
==== e(   9) =    -6.94279 eV ==== 
     psi = 0.237*[#  11]+0.237*[#  12]+0.237*[#  15]+0.237*[#  16]+0.012*[#   3]
          +0.012*[#   4]+0.012*[#   7]+0.012*[#   8]
    |psi|^2 = 0.997
==== e(  10) =    -4.24297 eV ==== 
     psi = 0.350*[#  10]+0.350*[#  14]+0.126*[#   3]+0.126*[#   4]+0.126*[#   7]
          +0.126*[#   8]+0.116*[#  11]+0.116*[#  12]+0.116*[#  15]+0.116*[#  16]
          +0.018*[#   2]+0.018*[#   6]+0.009*[#   1]+0.009*[#   5]
    |psi|^2 = 1.725
==== e(  11) =    -4.06064 eV ==== 
     psi = 0.138*[#   3]+0.138*[#   4]+0.138*[#   7]+0.138*[#   8]+0.110*[#  11]
          +0.110*[#  12]+0.110*[#  15]+0.110*[#  16]+0.003*[#   2]+0.003*[#   6]
          
    |psi|^2 = 1.000
==== e(  12) =    -0.56843 eV ==== 
     psi = 0.066*[#   2]+0.066*[#   6]+0.061*[#  10]+0.061*[#  14]+0.054*[#   9]
          +0.054*[#  13]+0.006*[#   1]+0.006*[#   5]+0.005*[#   3]+0.005*[#   4]
          +0.005*[#   7]+0.005*[#   8]
    |psi|^2 = 0.398
==== e(  13) =     3.45056 eV ==== 
     psi = 0.201*[#   3]+0.201*[#   4]+0.201*[#   7]+0.201*[#   8]+0.016*[#   1]
          +0.016*[#   5]+0.012*[#  11]+0.012*[#  12]+0.012*[#  15]+0.012*[#  16]
          
    |psi|^2 = 0.886
==== e(  14) =     3.68006 eV ==== 
     psi = 0.218*[#   3]+0.218*[#   4]+0.218*[#   7]+0.218*[#   8]+0.011*[#  11]
          +0.011*[#  12]+0.011*[#  15]+0.011*[#  16]+0.004*[#   1]+0.004*[#   5]
          
    |psi|^2 = 0.927
==== e(  15) =     3.73059 eV ==== 
     psi = 0.019*[#   2]+0.019*[#   6]+0.016*[#   3]+0.016*[#   4]+0.016*[#   7]
          +0.016*[#   8]+0.002*[#   9]+0.002*[#  13]+0.002*[#  10]+0.002*[#  14]
          
    |psi|^2 = 0.115

 k =   0.0428571428  0.0742307488  0.0000000000
==== e(   1) =   -29.35049 eV ==== 
     psi = 0.344*[#   9]+0.344*[#  13]+0.117*[#   1]+0.117*[#   5]+0.017*[#  10]
          +0.017*[#  14]+0.014*[#   2]+0.014*[#   6]+0.003*[#   3]+0.003*[#   4]
          +0.003*[#   7]+0.003*[#   8]
    |psi|^2 = 0.996
==== e(   2) =   -28.86872 eV ==== 
     psi = 0.356*[#   9]+0.356*[#  13]+0.017*[#   1]+0.017*[#   5]+0.001*[#   2]
          +0.001*[#   6]
    |psi|^2 = 0.749
==== e(   3) =   -20.10103 eV ==== 
     psi = 0.289*[#   1]+0.289*[#   5]+0.113*[#   2]+0.113*[#   6]+0.104*[#   9]
          +0.104*[#  13]+0.011*[#  10]+0.011*[#  14]+0.005*[#   3]+0.005*[#   4]
          +0.005*[#   7]+0.005*[#   8]
    |psi|^2 = 1.056
==== e(   4) =   -12.77927 eV ==== 
     psi = 0.078*[#   9]+0.078*[#  13]+0.022*[#   1]+0.022*[#   5]
    |psi|^2 = 0.200
==== e(   5) =    -9.88402 eV ==== 
     psi = 0.369*[#  10]+0.369*[#  14]+0.084*[#   2]+0.084*[#   6]+0.016*[#   1]
          +0.016*[#   5]+0.012*[#   9]+0.012*[#  13]+0.004*[#   3]+0.004*[#   4]
          +0.004*[#   7]+0.004*[#   8]+0.003*[#  11]+0.003*[#  12]+0.003*[#  15]
          +0.003*[#  16]
    |psi|^2 = 0.992
==== e(   6) =    -8.46993 eV ==== 
     psi = 0.129*[#  11]+0.129*[#  12]+0.129*[#  15]+0.129*[#  16]+0.113*[#   3]
          +0.113*[#   4]+0.113*[#   7]+0.113*[#   8]+0.005*[#   1]+0.005*[#   5]
          +0.002*[#   2]+0.002*[#   6]+0.002*[#  10]+0.002*[#  14]+0.001*[#   9]
          +0.001*[#  13]
    |psi|^2 = 0.990
==== e(   7) =    -8.22577 eV ==== 
     psi = 0.137*[#  11]+0.137*[#  12]+0.137*[#  15]+0.137*[#  16]+0.112*[#   3]
          +0.112*[#   4]+0.112*[#   7]+0.112*[#   8]+0.007*[#   2]+0.007*[#   6]
          
    |psi|^2 = 1.011
==== e(   8) =    -7.01421 eV ==== 
     psi = 0.233*[#  11]+0.233*[#  12]+0.233*[#  15]+0.233*[#  16]+0.068*[#  10]
          +0.068*[#  14]+0.059*[#   2]+0.059*[#   6]+0.011*[#   3]+0.011*[#   4]
          +0.011*[#   7]+0.011*[#   8]+0.003*[#   1]+0.003*[#   5]
    |psi|^2 = 1.237
==== e(   9) =    -6.94893 eV ==== 
     psi = 0.237*[#  11]+0.237*[#  12]+0.237*[#  15]+0.237*[#  16]+0.012*[#   3]
          +0.012*[#   4]+0.012*[#   7]+0.012*[#   8]
    |psi|^2 = 0.997
==== e(  10) =    -4.31167 eV ==== 
     psi = 0.349*[#  10]+0.349*[#  14]+0.122*[#   3]+0.122*[#   4]+0.122*[#   7]
          +0.122*[#   8]+0.119*[#  11]+0.119*[#  12]+0.119*[#  15]+0.119*[#  16]
          +0.018*[#   2]+0.018*[#   6]+0.010*[#   1]+0.010*[#   5]
    |psi|^2 = 1.721
==== e(  11) =    -4.08870 eV ==== 
     psi = 0.137*[#   3]+0.137*[#   4]+0.137*[#   7]+0.137*[#   8]+0.112*[#  11]
          +0.112*[#  12]+0.112*[#  15]+0.112*[#  16]+0.003*[#   2]+0.003*[#   6]
          
    |psi|^2 = 1.001
==== e(  12) =    -0.51154 eV ==== 
     psi = 0.064*[#   2]+0.064*[#   6]+0.063*[#  10]+0.063*[#  14]+0.054*[#   9]
          +0.054*[#  13]+0.006*[#   3]+0.006*[#   4]+0.006*[#   7]+0.006*[#   8]
          +0.005*[#   1]+0.005*[#   5]
    |psi|^2 = 0.401
==== e(  13) =     3.46433 eV ==== 
     psi = 0.197*[#   3]+0.197*[#   4]+0.197*[#   7]+0.197*[#   8]+0.020*[#   1]
          +0.020*[#   5]+0.012*[#  11]+0.012*[#  12]+0.012*[#  15]+0.012*[#  16]
          +0.001*[#  10]+0.001*[#  14]
    |psi|^2 = 0.877
==== e(  14) =     3.74233 eV ==== 
     psi = 0.211*[#   3]+0.211*[#   4]+0.211*[#   7]+0.211*[#   8]+0.011*[#  11]
          +0.011*[#  12]+0.011*[#  15]+0.011*[#  16]+0.006*[#   1]+0.006*[#   5]
          
    |psi|^2 = 0.901
==== e(  15) =     3.76601 eV ==== 
     psi = 0.019*[#   2]+0.019*[#   6]+0.017*[#   3]+0.017*[#   4]+0.017*[#   7]
          +0.017*[#   8]+0.002*[#   9]+0.002*[#  13]+0.002*[#  10]+0.002*[#  14]
          
    |psi|^2 = 0.120

 k =   0.0476190476  0.0824786098  0.0000000000
==== e(   1) =   -29.33940 eV ==== 
     psi = 0.344*[#   9]+0.344*[#  13]+0.116*[#   1]+0.116*[#   5]+0.017*[#  10]
          +0.017*[#  14]+0.015*[#   2]+0.015*[#   6]+0.003*[#   3]+0.003*[#   4]
          +0.003*[#   7]+0.003*[#   8]
    |psi|^2 = 0.996
==== e(   2) =   -28.86080 eV ==== 
     psi = 0.357*[#   9]+0.357*[#  13]+0.017*[#   1]+0.017*[#   5]+0.002*[#   2]
          +0.002*[#   6]
    |psi|^2 = 0.751
==== e(   3) =   -20.08118 eV ==== 
     psi = 0.288*[#   1]+0.288*[#   5]+0.112*[#   2]+0.112*[#   6]+0.104*[#   9]
          +0.104*[#  13]+0.011*[#  10]+0.011*[#  14]+0.007*[#   3]+0.007*[#   4]
          +0.007*[#   7]+0.007*[#   8]
    |psi|^2 = 1.056
==== e(   4) =   -12.76895 eV ==== 
     psi = 0.078*[#   9]+0.078*[#  13]+0.022*[#   1]+0.022*[#   5]
    |psi|^2 = 0.201
==== e(   5) =    -9.89386 eV ==== 
     psi = 0.367*[#  10]+0.367*[#  14]+0.084*[#   2]+0.084*[#   6]+0.015*[#   1]
          +0.015*[#   5]+0.012*[#   9]+0.012*[#  13]+0.004*[#   3]+0.004*[#   4]
          +0.004*[#   7]+0.004*[#   8]+0.004*[#  11]+0.004*[#  12]+0.004*[#  15]
          +0.004*[#  16]
    |psi|^2 = 0.992
==== e(   6) =    -8.55111 eV ==== 
     psi = 0.127*[#  11]+0.127*[#  12]+0.127*[#  15]+0.127*[#  16]+0.115*[#   3]
          +0.115*[#   4]+0.115*[#   7]+0.115*[#   8]+0.006*[#   1]+0.006*[#   5]
          +0.002*[#   2]+0.002*[#   6]+0.002*[#  10]+0.002*[#  14]+0.002*[#   9]
          +0.002*[#  13]
    |psi|^2 = 0.989
==== e(   7) =    -8.25534 eV ==== 
     psi = 0.136*[#  11]+0.136*[#  12]+0.136*[#  15]+0.136*[#  16]+0.113*[#   3]
          +0.113*[#   4]+0.113*[#   7]+0.113*[#   8]+0.008*[#   2]+0.008*[#   6]
          
    |psi|^2 = 1.013
==== e(   8) =    -7.03373 eV ==== 
     psi = 0.232*[#  11]+0.232*[#  12]+0.232*[#  15]+0.232*[#  16]+0.067*[#  10]
          +0.067*[#  14]+0.061*[#   2]+0.061*[#   6]+0.010*[#   3]+0.010*[#   4]
          +0.010*[#   7]+0.010*[#   8]+0.004*[#   1]+0.004*[#   5]
    |psi|^2 = 1.234
==== e(   9) =    -6.95618 eV ==== 
     psi = 0.237*[#  11]+0.237*[#  12]+0.237*[#  15]+0.237*[#  16]+0.012*[#   3]
          +0.012*[#   4]+0.012*[#   7]+0.012*[#   8]
    |psi|^2 = 0.997
==== e(  10) =    -4.38509 eV ==== 
     psi = 0.348*[#  10]+0.348*[#  14]+0.122*[#  11]+0.122*[#  12]+0.122*[#  15]
          +0.122*[#  16]+0.118*[#   3]+0.118*[#   4]+0.118*[#   7]+0.118*[#   8]
          +0.018*[#   2]+0.018*[#   6]+0.012*[#   1]+0.012*[#   5]
    |psi|^2 = 1.718
==== e(  11) =    -4.11972 eV ==== 
     psi = 0.135*[#   3]+0.135*[#   4]+0.135*[#   7]+0.135*[#   8]+0.113*[#  11]
          +0.113*[#  12]+0.113*[#  15]+0.113*[#  16]+0.003*[#   2]+0.003*[#   6]
          
    |psi|^2 = 1.001
==== e(  12) =    -0.45070 eV ==== 
     psi = 0.065*[#  10]+0.065*[#  14]+0.063*[#   2]+0.063*[#   6]+0.054*[#   9]
          +0.054*[#  13]+0.007*[#   3]+0.007*[#   4]+0.007*[#   7]+0.007*[#   8]
          +0.005*[#   1]+0.005*[#   5]
    |psi|^2 = 0.405
==== e(  13) =     3.48050 eV ==== 
     psi = 0.194*[#   3]+0.194*[#   4]+0.194*[#   7]+0.194*[#   8]+0.023*[#   1]
          +0.023*[#   5]+0.011*[#  11]+0.011*[#  12]+0.011*[#  15]+0.011*[#  16]
          +0.001*[#  10]+0.001*[#  14]
    |psi|^2 = 0.870
==== e(  14) =     3.80510 eV ==== 
     psi = 0.019*[#   2]+0.019*[#   6]+0.018*[#   3]+0.018*[#   4]+0.018*[#   7]
          +0.018*[#   8]+0.003*[#   9]+0.003*[#  13]+0.002*[#  10]+0.002*[#  14]
          
    |psi|^2 = 0.124
==== e(  15) =     3.80666 eV ==== 
     psi = 0.199*[#   3]+0.199*[#   4]+0.199*[#   7]+0.199*[#   8]+0.010*[#  11]
          +0.010*[#  12]+0.010*[#  15]+0.010*[#  16]+0.009*[#   1]+0.009*[#   5]
          +0.001*[#  10]+0.001*[#  14]
    |psi|^2 = 0.861

 k =   0.0523809523  0.0907264708  0.0000000000
==== e(   1) =   -29.32723 eV ==== 
     psi = 0.344*[#   9]+0.344*[#  13]+0.114*[#   1]+0.114*[#   5]+0.017*[#  10]
          +0.017*[#  14]+0.015*[#   2]+0.015*[#   6]+0.004*[#   3]+0.004*[#   4]
          +0.004*[#   7]+0.004*[#   8]
    |psi|^2 = 0.996
==== e(   2) =   -28.85213 eV ==== 
     psi = 0.357*[#   9]+0.357*[#  13]+0.017*[#   1]+0.017*[#   5]+0.002*[#   2]
          +0.002*[#   6]
    |psi|^2 = 0.753
==== e(   3) =   -20.05923 eV ==== 
     psi = 0.286*[#   1]+0.286*[#   5]+0.111*[#   2]+0.111*[#   6]+0.104*[#   9]
          +0.104*[#  13]+0.011*[#  10]+0.011*[#  14]+0.008*[#   3]+0.008*[#   4]
          +0.008*[#   7]+0.008*[#   8]
    |psi|^2 = 1.055
==== e(   4) =   -12.75766 eV ==== 
     psi = 0.077*[#   9]+0.077*[#  13]+0.023*[#   1]+0.023*[#   5]
    |psi|^2 = 0.201
==== e(   5) =    -9.90490 eV ==== 
     psi = 0.365*[#  10]+0.365*[#  14]+0.084*[#   2]+0.084*[#   6]+0.014*[#   1]
          +0.014*[#   5]+0.012*[#   9]+0.012*[#  13]+0.005*[#   3]+0.005*[#   4]
          +0.005*[#   7]+0.005*[#   8]+0.005*[#  11]+0.005*[#  12]+0.005*[#  15]
          +0.005*[#  16]
    |psi|^2 = 0.993
==== e(   6) =    -8.63868 eV ==== 
     psi = 0.123*[#  11]+0.123*[#  12]+0.123*[#  15]+0.123*[#  16]+0.116*[#   3]
          +0.116*[#   4]+0.116*[#   7]+0.116*[#   8]+0.007*[#   1]+0.007*[#   5]
          +0.003*[#   2]+0.003*[#   6]+0.003*[#  10]+0.003*[#  14]+0.002*[#   9]
          +0.002*[#  13]
    |psi|^2 = 0.988
==== e(   7) =    -8.28800 eV ==== 
     psi = 0.134*[#  11]+0.134*[#  12]+0.134*[#  15]+0.134*[#  16]+0.114*[#   3]
          +0.114*[#   4]+0.114*[#   7]+0.114*[#   8]+0.010*[#   2]+0.010*[#   6]
          
    |psi|^2 = 1.015
==== e(   8) =    -7.05462 eV ==== 
     psi = 0.231*[#  11]+0.231*[#  12]+0.231*[#  15]+0.231*[#  16]+0.065*[#  10]
          +0.065*[#  14]+0.062*[#   2]+0.062*[#   6]+0.010*[#   3]+0.010*[#   4]
          +0.010*[#   7]+0.010*[#   8]+0.005*[#   1]+0.005*[#   5]+0.001*[#   9]
          +0.001*[#  13]
    |psi|^2 = 1.231
==== e(   9) =    -6.96461 eV ==== 
     psi = 0.237*[#  11]+0.237*[#  12]+0.237*[#  15]+0.237*[#  16]+0.012*[#   3]
          +0.012*[#   4]+0.012*[#   7]+0.012*[#   8]
    |psi|^2 = 0.997
==== e(  10) =    -4.46250 eV ==== 
     psi = 0.347*[#  10]+0.347*[#  14]+0.125*[#  11]+0.125*[#  12]+0.125*[#  15]
          +0.125*[#  16]+0.115*[#   3]+0.115*[#   4]+0.115*[#   7]+0.115*[#   8]
          +0.018*[#   2]+0.018*[#   6]+0.014*[#   1]+0.014*[#   5]
    |psi|^2 = 1.715
==== e(  11) =    -4.15359 eV ==== 
     psi = 0.134*[#   3]+0.134*[#   4]+0.134*[#   7]+0.134*[#   8]+0.115*[#  11]
          +0.115*[#  12]+0.115*[#  15]+0.115*[#  16]+0.004*[#   2]+0.004*[#   6]
          
    |psi|^2 = 1.002
==== e(  12) =    -0.38642 eV ==== 
     psi = 0.068*[#  10]+0.068*[#  14]+0.061*[#   2]+0.061*[#   6]+0.053*[#   9]
          +0.053*[#  13]+0.008*[#   3]+0.008*[#   4]+0.008*[#   7]+0.008*[#   8]
          +0.004*[#   1]+0.004*[#   5]
    |psi|^2 = 0.408
==== e(  13) =     3.49917 eV ==== 
     psi = 0.191*[#   3]+0.191*[#   4]+0.191*[#   7]+0.191*[#   8]+0.027*[#   1]
          +0.027*[#   5]+0.011*[#  11]+0.011*[#  12]+0.011*[#  15]+0.011*[#  16]
          +0.001*[#  10]+0.001*[#  14]
    |psi|^2 = 0.864
==== e(  14) =     3.84782 eV ==== 
     psi = 0.020*[#   2]+0.020*[#   6]+0.019*[#   3]+0.019*[#   4]+0.019*[#   7]
          +0.019*[#   8]+0.003*[#   9]+0.003*[#  13]+0.002*[#  10]+0.002*[#  14]
          
    |psi|^2 = 0.127
==== e(  15) =     3.87156 eV ==== 
     psi = 0.184*[#   3]+0.184*[#   4]+0.184*[#   7]+0.184*[#   8]+0.012*[#   1]
          +0.012*[#   5]+0.009*[#  11]+0.009*[#  12]+0.009*[#  15]+0.009*[#  16]
          +0.002*[#  10]+0.002*[#  14]
    |psi|^2 = 0.806

 k =   0.0571428571  0.0989743318  0.0000000000
==== e(   1) =   -29.31399 eV ==== 
     psi = 0.345*[#   9]+0.345*[#  13]+0.113*[#   1]+0.113*[#   5]+0.017*[#  10]
          +0.017*[#  14]+0.015*[#   2]+0.015*[#   6]+0.004*[#   3]+0.004*[#   4]
          +0.004*[#   7]+0.004*[#   8]
    |psi|^2 = 0.996
==== e(   2) =   -28.84270 eV ==== 
     psi = 0.358*[#   9]+0.358*[#  13]+0.017*[#   1]+0.017*[#   5]+0.002*[#   2]
          +0.002*[#   6]
    |psi|^2 = 0.755
==== e(   3) =   -20.03521 eV ==== 
     psi = 0.284*[#   1]+0.284*[#   5]+0.111*[#   2]+0.111*[#   6]+0.103*[#   9]
          +0.103*[#  13]+0.011*[#  10]+0.011*[#  14]+0.009*[#   3]+0.009*[#   4]
          +0.009*[#   7]+0.009*[#   8]
    |psi|^2 = 1.055
==== e(   4) =   -12.74546 eV ==== 
     psi = 0.077*[#   9]+0.077*[#  13]+0.023*[#   1]+0.023*[#   5]
    |psi|^2 = 0.201
==== e(   5) =    -9.91722 eV ==== 
     psi = 0.363*[#  10]+0.363*[#  14]+0.083*[#   2]+0.083*[#   6]+0.013*[#   1]
          +0.013*[#   5]+0.012*[#   9]+0.012*[#  13]+0.006*[#  11]+0.006*[#  12]
          +0.006*[#  15]+0.006*[#  16]+0.006*[#   3]+0.006*[#   4]+0.006*[#   7]
          +0.006*[#   8]
    |psi|^2 = 0.993
==== e(   6) =    -8.73216 eV ==== 
     psi = 0.120*[#  11]+0.120*[#  12]+0.120*[#  15]+0.120*[#  16]+0.118*[#   3]
          +0.118*[#   4]+0.118*[#   7]+0.118*[#   8]+0.009*[#   1]+0.009*[#   5]
          +0.003*[#   2]+0.003*[#   6]+0.003*[#  10]+0.003*[#  14]+0.002*[#   9]
          +0.002*[#  13]
    |psi|^2 = 0.986
==== e(   7) =    -8.32372 eV ==== 
     psi = 0.132*[#  11]+0.132*[#  12]+0.132*[#  15]+0.132*[#  16]+0.115*[#   3]
          +0.115*[#   4]+0.115*[#   7]+0.115*[#   8]+0.011*[#   2]+0.011*[#   6]
          +0.001*[#   1]+0.001*[#   5]
    |psi|^2 = 1.016
==== e(   8) =    -7.07672 eV ==== 
     psi = 0.230*[#  11]+0.230*[#  12]+0.230*[#  15]+0.230*[#  16]+0.064*[#  10]
          +0.064*[#  14]+0.064*[#   2]+0.064*[#   6]+0.009*[#   3]+0.009*[#   4]
          +0.009*[#   7]+0.009*[#   8]+0.005*[#   1]+0.005*[#   5]+0.001*[#   9]
          +0.001*[#  13]
    |psi|^2 = 1.228
==== e(   9) =    -6.97430 eV ==== 
     psi = 0.237*[#  11]+0.237*[#  12]+0.237*[#  15]+0.237*[#  16]+0.012*[#   3]
          +0.012*[#   4]+0.012*[#   7]+0.012*[#   8]
    |psi|^2 = 0.997
==== e(  10) =    -4.54326 eV ==== 
     psi = 0.346*[#  10]+0.346*[#  14]+0.128*[#  11]+0.128*[#  12]+0.128*[#  15]
          +0.128*[#  16]+0.110*[#   3]+0.110*[#   4]+0.110*[#   7]+0.110*[#   8]
          +0.018*[#   2]+0.018*[#   6]+0.016*[#   1]+0.016*[#   5]
    |psi|^2 = 1.712
==== e(  11) =    -4.19019 eV ==== 
     psi = 0.132*[#   3]+0.132*[#   4]+0.132*[#   7]+0.132*[#   8]+0.116*[#  11]
          +0.116*[#  12]+0.116*[#  15]+0.116*[#  16]+0.004*[#   2]+0.004*[#   6]
          
    |psi|^2 = 1.002
==== e(  12) =    -0.31918 eV ==== 
     psi = 0.070*[#  10]+0.070*[#  14]+0.060*[#   2]+0.060*[#   6]+0.053*[#   9]
          +0.053*[#  13]+0.009*[#   3]+0.009*[#   4]+0.009*[#   7]+0.009*[#   8]
          +0.003*[#   1]+0.003*[#   5]+0.001*[#  11]+0.001*[#  12]+0.001*[#  15]
          +0.001*[#  16]
    |psi|^2 = 0.412
==== e(  13) =     3.52044 eV ==== 
     psi = 0.187*[#   3]+0.187*[#   4]+0.187*[#   7]+0.187*[#   8]+0.030*[#   1]
          +0.030*[#   5]+0.011*[#  11]+0.011*[#  12]+0.011*[#  15]+0.011*[#  16]
          +0.002*[#  10]+0.002*[#  14]
    |psi|^2 = 0.859
==== e(  14) =     3.89415 eV ==== 
     psi = 0.020*[#   2]+0.020*[#   6]+0.019*[#   3]+0.019*[#   4]+0.019*[#   7]
          +0.019*[#   8]+0.003*[#   9]+0.003*[#  13]+0.002*[#  10]+0.002*[#  14]
          
    |psi|^2 = 0.130
==== e(  15) =     3.93598 eV ==== 
     psi = 0.167*[#   3]+0.167*[#   4]+0.167*[#   7]+0.167*[#   8]+0.016*[#   1]
          +0.016*[#   5]+0.008*[#  11]+0.008*[#  12]+0.008*[#  15]+0.008*[#  16]
          +0.002*[#  10]+0.002*[#  14]
    |psi|^2 = 0.740

 k =   0.0619047618  0.1072221927  0.0000000000
==== e(   1) =   -29.29971 eV ==== 
     psi = 0.345*[#   9]+0.345*[#  13]+0.111*[#   1]+0.111*[#   5]+0.017*[#  10]
          +0.017*[#  14]+0.015*[#   2]+0.015*[#   6]+0.005*[#   3]+0.005*[#   4]
          +0.005*[#   7]+0.005*[#   8]
    |psi|^2 = 0.996
==== e(   2) =   -28.83256 eV ==== 
     psi = 0.359*[#   9]+0.359*[#  13]+0.017*[#   1]+0.017*[#   5]+0.003*[#   2]
          +0.003*[#   6]
    |psi|^2 = 0.757
==== e(   3) =   -20.00910 eV ==== 
     psi = 0.282*[#   1]+0.282*[#   5]+0.110*[#   2]+0.110*[#   6]+0.103*[#   9]
          +0.103*[#  13]+0.011*[#  10]+0.011*[#  14]+0.011*[#   3]+0.011*[#   4]
          +0.011*[#   7]+0.011*[#   8]
    |psi|^2 = 1.054
==== e(   4) =   -12.73239 eV ==== 
     psi = 0.077*[#   9]+0.077*[#  13]+0.023*[#   1]+0.023*[#   5]
    |psi|^2 = 0.201
==== e(   5) =    -9.93084 eV ==== 
     psi = 0.361*[#  10]+0.361*[#  14]+0.083*[#   2]+0.083*[#   6]+0.012*[#   1]
          +0.012*[#   5]+0.012*[#   9]+0.012*[#  13]+0.007*[#  11]+0.007*[#  12]
          +0.007*[#  15]+0.007*[#  16]+0.007*[#   3]+0.007*[#   4]+0.007*[#   7]
          +0.007*[#   8]
    |psi|^2 = 0.993
==== e(   6) =    -8.83103 eV ==== 
     psi = 0.119*[#   3]+0.119*[#   4]+0.119*[#   7]+0.119*[#   8]+0.117*[#  11]
          +0.117*[#  12]+0.117*[#  15]+0.117*[#  16]+0.010*[#   1]+0.010*[#   5]
          +0.004*[#   2]+0.004*[#   6]+0.004*[#  10]+0.004*[#  14]+0.002*[#   9]
          +0.002*[#  13]
    |psi|^2 = 0.986
==== e(   7) =    -8.36244 eV ==== 
     psi = 0.130*[#  11]+0.130*[#  12]+0.130*[#  15]+0.130*[#  16]+0.117*[#   3]
          +0.117*[#   4]+0.117*[#   7]+0.117*[#   8]+0.013*[#   2]+0.013*[#   6]
          +0.002*[#   1]+0.002*[#   5]
    |psi|^2 = 1.017
==== e(   8) =    -7.09988 eV ==== 
     psi = 0.229*[#  11]+0.229*[#  12]+0.229*[#  15]+0.229*[#  16]+0.065*[#   2]
          +0.065*[#   6]+0.063*[#  10]+0.063*[#  14]+0.009*[#   3]+0.009*[#   4]
          +0.009*[#   7]+0.009*[#   8]+0.006*[#   1]+0.006*[#   5]+0.001*[#   9]
          +0.001*[#  13]
    |psi|^2 = 1.224
==== e(   9) =    -6.98532 eV ==== 
     psi = 0.237*[#  11]+0.237*[#  12]+0.237*[#  15]+0.237*[#  16]+0.012*[#   3]
          +0.012*[#   4]+0.012*[#   7]+0.012*[#   8]
    |psi|^2 = 0.997
==== e(  10) =    -4.62676 eV ==== 
     psi = 0.345*[#  10]+0.345*[#  14]+0.131*[#  11]+0.131*[#  12]+0.131*[#  15]
          +0.131*[#  16]+0.106*[#   3]+0.106*[#   4]+0.106*[#   7]+0.106*[#   8]
          +0.018*[#   2]+0.018*[#   6]+0.018*[#   1]+0.018*[#   5]
    |psi|^2 = 1.709
==== e(  11) =    -4.22938 eV ==== 
     psi = 0.130*[#   3]+0.130*[#   4]+0.130*[#   7]+0.130*[#   8]+0.118*[#  11]
          +0.118*[#  12]+0.118*[#  15]+0.118*[#  16]+0.004*[#   2]+0.004*[#   6]
          
    |psi|^2 = 1.002
==== e(  12) =    -0.24935 eV ==== 
     psi = 0.073*[#  10]+0.073*[#  14]+0.058*[#   2]+0.058*[#   6]+0.052*[#   9]
          +0.052*[#  13]+0.010*[#   3]+0.010*[#   4]+0.010*[#   7]+0.010*[#   8]
          +0.003*[#   1]+0.003*[#   5]+0.001*[#  11]+0.001*[#  12]+0.001*[#  15]
          +0.001*[#  16]
    |psi|^2 = 0.416
==== e(  13) =     3.54441 eV ==== 
     psi = 0.185*[#   3]+0.185*[#   4]+0.185*[#   7]+0.185*[#   8]+0.034*[#   1]
          +0.034*[#   5]+0.011*[#  11]+0.011*[#  12]+0.011*[#  15]+0.011*[#  16]
          +0.002*[#  10]+0.002*[#  14]
    |psi|^2 = 0.855
==== e(  14) =     3.94406 eV ==== 
     psi = 0.020*[#   2]+0.020*[#   6]+0.019*[#   3]+0.019*[#   4]+0.019*[#   7]
          +0.019*[#   8]+0.003*[#   9]+0.003*[#  13]+0.002*[#  10]+0.002*[#  14]
          
    |psi|^2 = 0.131
==== e(  15) =     3.99954 eV ==== 
     psi = 0.149*[#   3]+0.149*[#   4]+0.149*[#   7]+0.149*[#   8]+0.020*[#   1]
          +0.020*[#   5]+0.007*[#  11]+0.007*[#  12]+0.007*[#  15]+0.007*[#  16]
          +0.002*[#  10]+0.002*[#  14]+0.001*[#   9]+0.001*[#  13]
    |psi|^2 = 0.672

 k =   0.0666666666  0.1154700537  0.0000000000
==== e(   1) =   -29.28442 eV ==== 
     psi = 0.345*[#   9]+0.345*[#  13]+0.109*[#   1]+0.109*[#   5]+0.017*[#  10]
          +0.017*[#  14]+0.015*[#   2]+0.015*[#   6]+0.006*[#   3]+0.006*[#   4]
          +0.006*[#   7]+0.006*[#   8]
    |psi|^2 = 0.996
==== e(   2) =   -28.82171 eV ==== 
     psi = 0.360*[#   9]+0.360*[#  13]+0.017*[#   1]+0.017*[#   5]+0.003*[#   2]
          +0.003*[#   6]
    |psi|^2 = 0.760
==== e(   3) =   -19.98091 eV ==== 
     psi = 0.280*[#   1]+0.280*[#   5]+0.109*[#   2]+0.109*[#   6]+0.103*[#   9]
          +0.103*[#  13]+0.012*[#   3]+0.012*[#   4]+0.012*[#   7]+0.012*[#   8]
          +0.011*[#  10]+0.011*[#  14]
    |psi|^2 = 1.054
==== e(   4) =   -12.71850 eV ==== 
     psi = 0.077*[#   9]+0.077*[#  13]+0.024*[#   1]+0.024*[#   5]
    |psi|^2 = 0.202
==== e(   5) =    -9.94585 eV ==== 
     psi = 0.358*[#  10]+0.358*[#  14]+0.082*[#   2]+0.082*[#   6]+0.012*[#   9]
          +0.012*[#  13]+0.011*[#   1]+0.011*[#   5]+0.009*[#  11]+0.009*[#  12]
          +0.009*[#  15]+0.009*[#  16]+0.008*[#   3]+0.008*[#   4]+0.008*[#   7]
          +0.008*[#   8]
    |psi|^2 = 0.994
==== e(   6) =    -8.93480 eV ==== 
     psi = 0.121*[#   3]+0.121*[#   4]+0.121*[#   7]+0.121*[#   8]+0.114*[#  11]
          +0.114*[#  12]+0.114*[#  15]+0.114*[#  16]+0.011*[#   1]+0.011*[#   5]
          +0.005*[#   2]+0.005*[#   6]+0.004*[#  10]+0.004*[#  14]+0.003*[#   9]
          +0.003*[#  13]
    |psi|^2 = 0.985
==== e(   7) =    -8.40410 eV ==== 
     psi = 0.128*[#  11]+0.128*[#  12]+0.128*[#  15]+0.128*[#  16]+0.118*[#   3]
          +0.118*[#   4]+0.118*[#   7]+0.118*[#   8]+0.014*[#   2]+0.014*[#   6]
          +0.002*[#   1]+0.002*[#   5]
    |psi|^2 = 1.018
==== e(   8) =    -7.12394 eV ==== 
     psi = 0.228*[#  11]+0.228*[#  12]+0.228*[#  15]+0.228*[#  16]+0.067*[#   2]
          +0.067*[#   6]+0.061*[#  10]+0.061*[#  14]+0.009*[#   3]+0.009*[#   4]
          +0.009*[#   7]+0.009*[#   8]+0.007*[#   1]+0.007*[#   5]+0.002*[#   9]
          +0.002*[#  13]
    |psi|^2 = 1.220
==== e(   9) =    -6.99773 eV ==== 
     psi = 0.237*[#  11]+0.237*[#  12]+0.237*[#  15]+0.237*[#  16]+0.012*[#   3]
          +0.012*[#   4]+0.012*[#   7]+0.012*[#   8]
    |psi|^2 = 0.997
==== e(  10) =    -4.71243 eV ==== 
     psi = 0.344*[#  10]+0.344*[#  14]+0.134*[#  11]+0.134*[#  12]+0.134*[#  15]
          +0.134*[#  16]+0.102*[#   3]+0.102*[#   4]+0.102*[#   7]+0.102*[#   8]
          +0.019*[#   1]+0.019*[#   5]+0.018*[#   2]+0.018*[#   6]
    |psi|^2 = 1.706
==== e(  11) =    -4.27101 eV ==== 
     psi = 0.128*[#   3]+0.128*[#   4]+0.128*[#   7]+0.128*[#   8]+0.120*[#  11]
          +0.120*[#  12]+0.120*[#  15]+0.120*[#  16]+0.004*[#   2]+0.004*[#   6]
          
    |psi|^2 = 1.002
==== e(  12) =    -0.17728 eV ==== 
     psi = 0.076*[#  10]+0.076*[#  14]+0.056*[#   2]+0.056*[#   6]+0.052*[#   9]
          +0.052*[#  13]+0.010*[#   3]+0.010*[#   4]+0.010*[#   7]+0.010*[#   8]
          +0.002*[#   1]+0.002*[#   5]+0.002*[#  11]+0.002*[#  12]+0.002*[#  15]
          +0.002*[#  16]
    |psi|^2 = 0.420
==== e(  13) =     3.57115 eV ==== 
     psi = 0.182*[#   3]+0.182*[#   4]+0.182*[#   7]+0.182*[#   8]+0.038*[#   1]
          +0.038*[#   5]+0.011*[#  11]+0.011*[#  12]+0.011*[#  15]+0.011*[#  16]
          +0.002*[#  10]+0.002*[#  14]
    |psi|^2 = 0.851
==== e(  14) =     3.99755 eV ==== 
     psi = 0.021*[#   2]+0.021*[#   6]+0.019*[#   3]+0.019*[#   4]+0.019*[#   7]
          +0.019*[#   8]+0.003*[#   9]+0.003*[#  13]+0.002*[#  10]+0.002*[#  14]
          
    |psi|^2 = 0.132
==== e(  15) =     4.06254 eV ==== 
     psi = 0.132*[#   3]+0.132*[#   4]+0.132*[#   7]+0.132*[#   8]+0.023*[#   1]
          +0.023*[#   5]+0.007*[#  11]+0.007*[#  12]+0.007*[#  15]+0.007*[#  16]
          +0.003*[#  10]+0.003*[#  14]+0.001*[#   9]+0.001*[#  13]
    |psi|^2 = 0.609

 k =   0.0714285714  0.1237179147  0.0000000000
==== e(   1) =   -29.26815 eV ==== 
     psi = 0.346*[#   9]+0.346*[#  13]+0.107*[#   1]+0.107*[#   5]+0.017*[#  10]
          +0.017*[#  14]+0.015*[#   2]+0.015*[#   6]+0.006*[#   3]+0.006*[#   4]
          +0.006*[#   7]+0.006*[#   8]
    |psi|^2 = 0.996
==== e(   2) =   -28.81020 eV ==== 
     psi = 0.360*[#   9]+0.360*[#  13]+0.017*[#   1]+0.017*[#   5]+0.003*[#   2]
          +0.003*[#   6]
    |psi|^2 = 0.762
==== e(   3) =   -19.95065 eV ==== 
     psi = 0.277*[#   1]+0.277*[#   5]+0.108*[#   2]+0.108*[#   6]+0.102*[#   9]
          +0.102*[#  13]+0.014*[#   3]+0.014*[#   4]+0.014*[#   7]+0.014*[#   8]
          +0.011*[#  10]+0.011*[#  14]
    |psi|^2 = 1.053
==== e(   4) =   -12.70385 eV ==== 
     psi = 0.076*[#   9]+0.076*[#  13]+0.024*[#   1]+0.024*[#   5]
    |psi|^2 = 0.202
==== e(   5) =    -9.96229 eV ==== 
     psi = 0.355*[#  10]+0.355*[#  14]+0.081*[#   2]+0.081*[#   6]+0.012*[#   9]
          +0.012*[#  13]+0.010*[#   1]+0.010*[#   5]+0.010*[#  11]+0.010*[#  12]
          +0.010*[#  15]+0.010*[#  16]+0.010*[#   3]+0.010*[#   4]+0.010*[#   7]
          +0.010*[#   8]
    |psi|^2 = 0.994
==== e(   6) =    -9.04297 eV ==== 
     psi = 0.123*[#   3]+0.123*[#   4]+0.123*[#   7]+0.123*[#   8]+0.110*[#  11]
          +0.110*[#  12]+0.110*[#  15]+0.110*[#  16]+0.013*[#   1]+0.013*[#   5]
          +0.005*[#   2]+0.005*[#   6]+0.005*[#  10]+0.005*[#  14]+0.003*[#   9]
          +0.003*[#  13]
    |psi|^2 = 0.984
==== e(   7) =    -8.44861 eV ==== 
     psi = 0.126*[#  11]+0.126*[#  12]+0.126*[#  15]+0.126*[#  16]+0.119*[#   3]
          +0.119*[#   4]+0.119*[#   7]+0.119*[#   8]+0.016*[#   2]+0.016*[#   6]
          +0.003*[#   1]+0.003*[#   5]
    |psi|^2 = 1.018
==== e(   8) =    -7.14878 eV ==== 
     psi = 0.227*[#  11]+0.227*[#  12]+0.227*[#  15]+0.227*[#  16]+0.068*[#   2]
          +0.068*[#   6]+0.060*[#  10]+0.060*[#  14]+0.008*[#   3]+0.008*[#   4]
          +0.008*[#   7]+0.008*[#   8]+0.008*[#   1]+0.008*[#   5]+0.002*[#   9]
          +0.002*[#  13]
    |psi|^2 = 1.216
==== e(   9) =    -7.01159 eV ==== 
     psi = 0.237*[#  11]+0.237*[#  12]+0.237*[#  15]+0.237*[#  16]+0.012*[#   3]
          +0.012*[#   4]+0.012*[#   7]+0.012*[#   8]
    |psi|^2 = 0.997
==== e(  10) =    -4.79977 eV ==== 
     psi = 0.342*[#  10]+0.342*[#  14]+0.137*[#  11]+0.137*[#  12]+0.137*[#  15]
          +0.137*[#  16]+0.098*[#   3]+0.098*[#   4]+0.098*[#   7]+0.098*[#   8]
          +0.021*[#   1]+0.021*[#   5]+0.018*[#   2]+0.018*[#   6]
    |psi|^2 = 1.703
==== e(  11) =    -4.31493 eV ==== 
     psi = 0.126*[#   3]+0.126*[#   4]+0.126*[#   7]+0.126*[#   8]+0.122*[#  11]
          +0.122*[#  12]+0.122*[#  15]+0.122*[#  16]+0.004*[#   2]+0.004*[#   6]
          +0.001*[#   1]+0.001*[#   5]
    |psi|^2 = 1.002
==== e(  12) =    -0.10326 eV ==== 
     psi = 0.079*[#  10]+0.079*[#  14]+0.055*[#   2]+0.055*[#   6]+0.051*[#   9]
          +0.051*[#  13]+0.011*[#   3]+0.011*[#   4]+0.011*[#   7]+0.011*[#   8]
          +0.002*[#  11]+0.002*[#  12]+0.002*[#  15]+0.002*[#  16]+0.002*[#   1]
          +0.002*[#   5]
    |psi|^2 = 0.424
==== e(  13) =     3.60074 eV ==== 
     psi = 0.179*[#   3]+0.179*[#   4]+0.179*[#   7]+0.179*[#   8]+0.042*[#   1]
          +0.042*[#   5]+0.011*[#  11]+0.011*[#  12]+0.011*[#  15]+0.011*[#  16]
          +0.002*[#  10]+0.002*[#  14]
    |psi|^2 = 0.848
==== e(  14) =     4.05459 eV ==== 
     psi = 0.021*[#   2]+0.021*[#   6]+0.019*[#   3]+0.019*[#   4]+0.019*[#   7]
          +0.019*[#   8]+0.003*[#   9]+0.003*[#  13]+0.002*[#  10]+0.002*[#  14]
          
    |psi|^2 = 0.132
==== e(  15) =     4.12560 eV ==== 
     psi = 0.118*[#   3]+0.118*[#   4]+0.118*[#   7]+0.118*[#   8]+0.025*[#   1]
          +0.025*[#   5]+0.006*[#  11]+0.006*[#  12]+0.006*[#  15]+0.006*[#  16]
          +0.003*[#  10]+0.003*[#  14]+0.001*[#   9]+0.001*[#  13]
    |psi|^2 = 0.555

 k =   0.0761904761  0.1319657757  0.0000000000
==== e(   1) =   -29.25093 eV ==== 
     psi = 0.346*[#   9]+0.346*[#  13]+0.105*[#   1]+0.105*[#   5]+0.017*[#  10]
          +0.017*[#  14]+0.016*[#   2]+0.016*[#   6]+0.007*[#   3]+0.007*[#   4]
          +0.007*[#   7]+0.007*[#   8]
    |psi|^2 = 0.996
==== e(   2) =   -28.79803 eV ==== 
     psi = 0.361*[#   9]+0.361*[#  13]+0.017*[#   1]+0.017*[#   5]+0.003*[#   2]
          +0.003*[#   6]
    |psi|^2 = 0.765
==== e(   3) =   -19.91830 eV ==== 
     psi = 0.275*[#   1]+0.275*[#   5]+0.107*[#   2]+0.107*[#   6]+0.102*[#   9]
          +0.102*[#  13]+0.015*[#   3]+0.015*[#   4]+0.015*[#   7]+0.015*[#   8]
          +0.011*[#  10]+0.011*[#  14]
    |psi|^2 = 1.052
==== e(   4) =   -12.68852 eV ==== 
     psi = 0.076*[#   9]+0.076*[#  13]+0.024*[#   1]+0.024*[#   5]
    |psi|^2 = 0.203
==== e(   5) =    -9.98025 eV ==== 
     psi = 0.351*[#  10]+0.351*[#  14]+0.081*[#   2]+0.081*[#   6]+0.012*[#  11]
          +0.012*[#  12]+0.012*[#  15]+0.012*[#  16]+0.011*[#   9]+0.011*[#  13]
          +0.011*[#   3]+0.011*[#   4]+0.011*[#   7]+0.011*[#   8]+0.009*[#   1]
          +0.009*[#   5]
    |psi|^2 = 0.994
==== e(   6) =    -9.15504 eV ==== 
     psi = 0.124*[#   3]+0.124*[#   4]+0.124*[#   7]+0.124*[#   8]+0.107*[#  11]
          +0.107*[#  12]+0.107*[#  15]+0.107*[#  16]+0.015*[#   1]+0.015*[#   5]
          +0.006*[#   2]+0.006*[#   6]+0.006*[#  10]+0.006*[#  14]+0.003*[#   9]
          +0.003*[#  13]
    |psi|^2 = 0.984
==== e(   7) =    -8.49585 eV ==== 
     psi = 0.123*[#  11]+0.123*[#  12]+0.123*[#  15]+0.123*[#  16]+0.121*[#   3]
          +0.121*[#   4]+0.121*[#   7]+0.121*[#   8]+0.017*[#   2]+0.017*[#   6]
          +0.003*[#   1]+0.003*[#   5]
    |psi|^2 = 1.017
==== e(   8) =    -7.17427 eV ==== 
     psi = 0.226*[#  11]+0.226*[#  12]+0.226*[#  15]+0.226*[#  16]+0.070*[#   2]
          +0.070*[#   6]+0.058*[#  10]+0.058*[#  14]+0.008*[#   1]+0.008*[#   5]
          +0.008*[#   3]+0.008*[#   4]+0.008*[#   7]+0.008*[#   8]+0.002*[#   9]
          +0.002*[#  13]
    |psi|^2 = 1.211
==== e(   9) =    -7.02698 eV ==== 
     psi = 0.237*[#  11]+0.237*[#  12]+0.237*[#  15]+0.237*[#  16]+0.012*[#   3]
          +0.012*[#   4]+0.012*[#   7]+0.012*[#   8]
    |psi|^2 = 0.996
==== e(  10) =    -4.88829 eV ==== 
     psi = 0.340*[#  10]+0.340*[#  14]+0.140*[#  11]+0.140*[#  12]+0.140*[#  15]
          +0.140*[#  16]+0.094*[#   3]+0.094*[#   4]+0.094*[#   7]+0.094*[#   8]
          +0.022*[#   1]+0.022*[#   5]+0.018*[#   2]+0.018*[#   6]
    |psi|^2 = 1.699
==== e(  11) =    -4.36099 eV ==== 
     psi = 0.124*[#  11]+0.124*[#  12]+0.124*[#  15]+0.124*[#  16]+0.123*[#   3]
          +0.123*[#   4]+0.123*[#   7]+0.123*[#   8]+0.004*[#   2]+0.004*[#   6]
          +0.001*[#   1]+0.001*[#   5]
    |psi|^2 = 1.002
==== e(  12) =    -0.02751 eV ==== 
     psi = 0.082*[#  10]+0.082*[#  14]+0.053*[#   2]+0.053*[#   6]+0.050*[#   9]
          +0.050*[#  13]+0.012*[#   3]+0.012*[#   4]+0.012*[#   7]+0.012*[#   8]
          +0.002*[#  11]+0.002*[#  12]+0.002*[#  15]+0.002*[#  16]+0.001*[#   1]
          +0.001*[#   5]
    |psi|^2 = 0.428
==== e(  13) =     3.63324 eV ==== 
     psi = 0.177*[#   3]+0.177*[#   4]+0.177*[#   7]+0.177*[#   8]+0.045*[#   1]
          +0.045*[#   5]+0.011*[#  11]+0.011*[#  12]+0.011*[#  15]+0.011*[#  16]
          +0.002*[#  10]+0.002*[#  14]
    |psi|^2 = 0.846
==== e(  14) =     4.11518 eV ==== 
     psi = 0.022*[#   2]+0.022*[#   6]+0.019*[#   3]+0.019*[#   4]+0.019*[#   7]
          +0.019*[#   8]+0.003*[#   9]+0.003*[#  13]+0.002*[#  10]+0.002*[#  14]
          
    |psi|^2 = 0.133
==== e(  15) =     4.18944 eV ==== 
     psi = 0.106*[#   3]+0.106*[#   4]+0.106*[#   7]+0.106*[#   8]+0.028*[#   1]
          +0.028*[#   5]+0.005*[#  11]+0.005*[#  12]+0.005*[#  15]+0.005*[#  16]
          +0.003*[#  10]+0.003*[#  14]+0.001*[#   9]+0.001*[#  13]
    |psi|^2 = 0.512

 k =   0.0809523809  0.1402136367  0.0000000000
==== e(   1) =   -29.23280 eV ==== 
     psi = 0.347*[#   9]+0.347*[#  13]+0.104*[#   1]+0.104*[#   5]+0.017*[#  10]
          +0.017*[#  14]+0.016*[#   2]+0.016*[#   6]+0.007*[#   3]+0.007*[#   4]
          +0.007*[#   7]+0.007*[#   8]
    |psi|^2 = 0.997
==== e(   2) =   -28.78525 eV ==== 
     psi = 0.362*[#   9]+0.362*[#  13]+0.017*[#   1]+0.017*[#   5]+0.004*[#   2]
          +0.004*[#   6]
    |psi|^2 = 0.767
==== e(   3) =   -19.88388 eV ==== 
     psi = 0.273*[#   1]+0.273*[#   5]+0.106*[#   2]+0.106*[#   6]+0.101*[#   9]
          +0.101*[#  13]+0.017*[#   3]+0.017*[#   4]+0.017*[#   7]+0.017*[#   8]
          +0.011*[#  10]+0.011*[#  14]
    |psi|^2 = 1.052
==== e(   4) =   -12.67258 eV ==== 
     psi = 0.076*[#   9]+0.076*[#  13]+0.025*[#   1]+0.025*[#   5]
    |psi|^2 = 0.204
==== e(   5) =    -9.99979 eV ==== 
     psi = 0.347*[#  10]+0.347*[#  14]+0.080*[#   2]+0.080*[#   6]+0.013*[#  11]
          +0.013*[#  12]+0.013*[#  15]+0.013*[#  16]+0.012*[#   3]+0.012*[#   4]
          +0.012*[#   7]+0.012*[#   8]+0.011*[#   9]+0.011*[#  13]+0.008*[#   1]
          +0.008*[#   5]
    |psi|^2 = 0.995
==== e(   6) =    -9.27052 eV ==== 
     psi = 0.126*[#   3]+0.126*[#   4]+0.126*[#   7]+0.126*[#   8]+0.104*[#  11]
          +0.104*[#  12]+0.104*[#  15]+0.104*[#  16]+0.016*[#   1]+0.016*[#   5]
          +0.007*[#   2]+0.007*[#   6]+0.007*[#  10]+0.007*[#  14]+0.003*[#   9]
          +0.003*[#  13]
    |psi|^2 = 0.984
==== e(   7) =    -8.54569 eV ==== 
     psi = 0.122*[#   3]+0.122*[#   4]+0.122*[#   7]+0.122*[#   8]+0.120*[#  11]
          +0.120*[#  12]+0.120*[#  15]+0.120*[#  16]+0.019*[#   2]+0.019*[#   6]
          +0.004*[#   1]+0.004*[#   5]
    |psi|^2 = 1.016
==== e(   8) =    -7.20027 eV ==== 
     psi = 0.225*[#  11]+0.225*[#  12]+0.225*[#  15]+0.225*[#  16]+0.071*[#   2]
          +0.071*[#   6]+0.056*[#  10]+0.056*[#  14]+0.009*[#   1]+0.009*[#   5]
          +0.007*[#   3]+0.007*[#   4]+0.007*[#   7]+0.007*[#   8]+0.002*[#   9]
          +0.002*[#  13]
    |psi|^2 = 1.207
==== e(   9) =    -7.04396 eV ==== 
     psi = 0.237*[#  11]+0.237*[#  12]+0.237*[#  15]+0.237*[#  16]+0.012*[#   3]
          +0.012*[#   4]+0.012*[#   7]+0.012*[#   8]
    |psi|^2 = 0.996
==== e(  10) =    -4.97757 eV ==== 
     psi = 0.339*[#  10]+0.339*[#  14]+0.143*[#  11]+0.143*[#  12]+0.143*[#  15]
          +0.143*[#  16]+0.090*[#   3]+0.090*[#   4]+0.090*[#   7]+0.090*[#   8]
          +0.024*[#   1]+0.024*[#   5]+0.018*[#   2]+0.018*[#   6]
    |psi|^2 = 1.695
==== e(  11) =    -4.40901 eV ==== 
     psi = 0.127*[#  11]+0.127*[#  12]+0.127*[#  15]+0.127*[#  16]+0.121*[#   3]
          +0.121*[#   4]+0.121*[#   7]+0.121*[#   8]+0.004*[#   2]+0.004*[#   6]
          +0.002*[#   1]+0.002*[#   5]
    |psi|^2 = 1.002
==== e(  12) =     0.04976 eV ==== 
     psi = 0.085*[#  10]+0.085*[#  14]+0.051*[#   2]+0.051*[#   6]+0.050*[#   9]
          +0.050*[#  13]+0.012*[#   3]+0.012*[#   4]+0.012*[#   7]+0.012*[#   8]
          +0.003*[#  11]+0.003*[#  12]+0.003*[#  15]+0.003*[#  16]+0.001*[#   1]
          +0.001*[#   5]
    |psi|^2 = 0.433
==== e(  13) =     3.66870 eV ==== 
     psi = 0.174*[#   3]+0.174*[#   4]+0.174*[#   7]+0.174*[#   8]+0.049*[#   1]
          +0.049*[#   5]+0.011*[#  11]+0.011*[#  12]+0.011*[#  15]+0.011*[#  16]
          +0.002*[#  10]+0.002*[#  14]
    |psi|^2 = 0.844
==== e(  14) =     4.17930 eV ==== 
     psi = 0.022*[#   2]+0.022*[#   6]+0.019*[#   3]+0.019*[#   4]+0.019*[#   7]
          +0.019*[#   8]+0.003*[#   9]+0.003*[#  13]+0.002*[#  10]+0.002*[#  14]
          
    |psi|^2 = 0.133
==== e(  15) =     4.25465 eV ==== 
     psi = 0.097*[#   3]+0.097*[#   4]+0.097*[#   7]+0.097*[#   8]+0.030*[#   1]
          +0.030*[#   5]+0.005*[#  11]+0.005*[#  12]+0.005*[#  15]+0.005*[#  16]
          +0.003*[#  10]+0.003*[#  14]+0.001*[#   9]+0.001*[#  13]
    |psi|^2 = 0.479

 k =   0.0857142856  0.1484614976  0.0000000000
==== e(   1) =   -29.21379 eV ==== 
     psi = 0.347*[#   9]+0.347*[#  13]+0.102*[#   1]+0.102*[#   5]+0.017*[#  10]
          +0.017*[#  14]+0.016*[#   2]+0.016*[#   6]+0.008*[#   3]+0.008*[#   4]
          +0.008*[#   7]+0.008*[#   8]
    |psi|^2 = 0.997
==== e(   2) =   -28.77188 eV ==== 
     psi = 0.363*[#   9]+0.363*[#  13]+0.018*[#   1]+0.018*[#   5]+0.004*[#   2]
          +0.004*[#   6]
    |psi|^2 = 0.770
==== e(   3) =   -19.84738 eV ==== 
     psi = 0.270*[#   1]+0.270*[#   5]+0.105*[#   2]+0.105*[#   6]+0.101*[#   9]
          +0.101*[#  13]+0.019*[#   3]+0.019*[#   4]+0.019*[#   7]+0.019*[#   8]
          +0.011*[#  10]+0.011*[#  14]
    |psi|^2 = 1.051
==== e(   4) =   -12.65611 eV ==== 
     psi = 0.075*[#   9]+0.075*[#  13]+0.025*[#   1]+0.025*[#   5]
    |psi|^2 = 0.205
==== e(   5) =   -10.02100 eV ==== 
     psi = 0.343*[#  10]+0.343*[#  14]+0.079*[#   2]+0.079*[#   6]+0.015*[#  11]
          +0.015*[#  12]+0.015*[#  15]+0.015*[#  16]+0.014*[#   3]+0.014*[#   4]
          +0.014*[#   7]+0.014*[#   8]+0.011*[#   9]+0.011*[#  13]+0.007*[#   1]
          +0.007*[#   5]
    |psi|^2 = 0.995
==== e(   6) =    -9.38895 eV ==== 
     psi = 0.127*[#   3]+0.127*[#   4]+0.127*[#   7]+0.127*[#   8]+0.100*[#  11]
          +0.100*[#  12]+0.100*[#  15]+0.100*[#  16]+0.018*[#   1]+0.018*[#   5]
          +0.008*[#   2]+0.008*[#   6]+0.008*[#  10]+0.008*[#  14]+0.004*[#   9]
          +0.004*[#  13]
    |psi|^2 = 0.985
==== e(   7) =    -8.59800 eV ==== 
     psi = 0.123*[#   3]+0.123*[#   4]+0.123*[#   7]+0.123*[#   8]+0.117*[#  11]
          +0.117*[#  12]+0.117*[#  15]+0.117*[#  16]+0.021*[#   2]+0.021*[#   6]
          +0.005*[#   1]+0.005*[#   5]
    |psi|^2 = 1.014
==== e(   8) =    -7.22669 eV ==== 
     psi = 0.224*[#  11]+0.224*[#  12]+0.224*[#  15]+0.224*[#  16]+0.072*[#   2]
          +0.072*[#   6]+0.055*[#  10]+0.055*[#  14]+0.009*[#   1]+0.009*[#   5]
          +0.007*[#   3]+0.007*[#   4]+0.007*[#   7]+0.007*[#   8]+0.002*[#   9]
          +0.002*[#  13]
    |psi|^2 = 1.202
==== e(   9) =    -7.06258 eV ==== 
     psi = 0.237*[#  11]+0.237*[#  12]+0.237*[#  15]+0.237*[#  16]+0.012*[#   3]
          +0.012*[#   4]+0.012*[#   7]+0.012*[#   8]
    |psi|^2 = 0.996
==== e(  10) =    -5.06719 eV ==== 
     psi = 0.337*[#  10]+0.337*[#  14]+0.146*[#  11]+0.146*[#  12]+0.146*[#  15]
          +0.146*[#  16]+0.086*[#   3]+0.086*[#   4]+0.086*[#   7]+0.086*[#   8]
          +0.025*[#   1]+0.025*[#   5]+0.018*[#   2]+0.018*[#   6]
    |psi|^2 = 1.691
==== e(  11) =    -4.45881 eV ==== 
     psi = 0.129*[#  11]+0.129*[#  12]+0.129*[#  15]+0.129*[#  16]+0.118*[#   3]
          +0.118*[#   4]+0.118*[#   7]+0.118*[#   8]+0.004*[#   2]+0.004*[#   6]
          +0.002*[#   1]+0.002*[#   5]
    |psi|^2 = 1.002
==== e(  12) =     0.12839 eV ==== 
     psi = 0.089*[#  10]+0.089*[#  14]+0.049*[#   2]+0.049*[#   6]+0.049*[#   9]
          +0.049*[#  13]+0.013*[#   3]+0.013*[#   4]+0.013*[#   7]+0.013*[#   8]
          +0.003*[#  11]+0.003*[#  12]+0.003*[#  15]+0.003*[#  16]
    |psi|^2 = 0.438
==== e(  13) =     3.70717 eV ==== 
     psi = 0.172*[#   3]+0.172*[#   4]+0.172*[#   7]+0.172*[#   8]+0.053*[#   1]
          +0.053*[#   5]+0.011*[#  11]+0.011*[#  12]+0.011*[#  15]+0.011*[#  16]
          +0.002*[#  10]+0.002*[#  14]
    |psi|^2 = 0.842
==== e(  14) =     4.24694 eV ==== 
     psi = 0.023*[#   2]+0.023*[#   6]+0.018*[#   3]+0.018*[#   4]+0.018*[#   7]
          +0.018*[#   8]+0.003*[#   9]+0.003*[#  13]+0.002*[#  10]+0.002*[#  14]
          
    |psi|^2 = 0.132
==== e(  15) =     4.32170 eV ==== 
     psi = 0.091*[#   3]+0.091*[#   4]+0.091*[#   7]+0.091*[#   8]+0.032*[#   1]
          +0.032*[#   5]+0.004*[#  11]+0.004*[#  12]+0.004*[#  15]+0.004*[#  16]
          +0.004*[#  10]+0.004*[#  14]+0.001*[#   9]+0.001*[#  13]
    |psi|^2 = 0.454

 k =   0.0904761904  0.1567093586  0.0000000000
==== e(   1) =   -29.19394 eV ==== 
     psi = 0.348*[#   9]+0.348*[#  13]+0.100*[#   1]+0.100*[#   5]+0.016*[#   2]
          +0.016*[#   6]+0.016*[#  10]+0.016*[#  14]+0.009*[#   3]+0.009*[#   4]
          +0.009*[#   7]+0.009*[#   8]
    |psi|^2 = 0.997
==== e(   2) =   -28.75796 eV ==== 
     psi = 0.364*[#   9]+0.364*[#  13]+0.018*[#   1]+0.018*[#   5]+0.004*[#   2]
          +0.004*[#   6]
    |psi|^2 = 0.773
==== e(   3) =   -19.80880 eV ==== 
     psi = 0.268*[#   1]+0.268*[#   5]+0.104*[#   2]+0.104*[#   6]+0.100*[#   9]
          +0.100*[#  13]+0.021*[#   3]+0.021*[#   4]+0.021*[#   7]+0.021*[#   8]
          +0.011*[#  10]+0.011*[#  14]
    |psi|^2 = 1.050
==== e(   4) =   -12.63924 eV ==== 
     psi = 0.075*[#   9]+0.075*[#  13]+0.026*[#   1]+0.026*[#   5]
    |psi|^2 = 0.206
==== e(   5) =   -10.04394 eV ==== 
     psi = 0.339*[#  10]+0.339*[#  14]+0.078*[#   2]+0.078*[#   6]+0.017*[#  11]
          +0.017*[#  12]+0.017*[#  15]+0.017*[#  16]+0.016*[#   3]+0.016*[#   4]
          +0.016*[#   7]+0.016*[#   8]+0.011*[#   9]+0.011*[#  13]+0.006*[#   1]
          +0.006*[#   5]
    |psi|^2 = 0.995
==== e(   6) =    -9.50983 eV ==== 
     psi = 0.128*[#   3]+0.128*[#   4]+0.128*[#   7]+0.128*[#   8]+0.097*[#  11]
          +0.097*[#  12]+0.097*[#  15]+0.097*[#  16]+0.019*[#   1]+0.019*[#   5]
          +0.010*[#   2]+0.010*[#   6]+0.009*[#  10]+0.009*[#  14]+0.004*[#   9]
          +0.004*[#  13]
    |psi|^2 = 0.985
==== e(   7) =    -8.65261 eV ==== 
     psi = 0.124*[#   3]+0.124*[#   4]+0.124*[#   7]+0.124*[#   8]+0.114*[#  11]
          +0.114*[#  12]+0.114*[#  15]+0.114*[#  16]+0.023*[#   2]+0.023*[#   6]
          +0.006*[#   1]+0.006*[#   5]
    |psi|^2 = 1.011
==== e(   8) =    -7.25341 eV ==== 
     psi = 0.223*[#  11]+0.223*[#  12]+0.223*[#  15]+0.223*[#  16]+0.074*[#   2]
          +0.074*[#   6]+0.053*[#  10]+0.053*[#  14]+0.010*[#   1]+0.010*[#   5]
          +0.007*[#   3]+0.007*[#   4]+0.007*[#   7]+0.007*[#   8]+0.002*[#   9]
          +0.002*[#  13]
    |psi|^2 = 1.197
==== e(   9) =    -7.08294 eV ==== 
     psi = 0.236*[#  11]+0.236*[#  12]+0.236*[#  15]+0.236*[#  16]+0.012*[#   3]
          +0.012*[#   4]+0.012*[#   7]+0.012*[#   8]
    |psi|^2 = 0.996
==== e(  10) =    -5.15679 eV ==== 
     psi = 0.334*[#  10]+0.334*[#  14]+0.150*[#  11]+0.150*[#  12]+0.150*[#  15]
          +0.150*[#  16]+0.083*[#   3]+0.083*[#   4]+0.083*[#   7]+0.083*[#   8]
          +0.026*[#   1]+0.026*[#   5]+0.018*[#   2]+0.018*[#   6]
    |psi|^2 = 1.687
==== e(  11) =    -4.51023 eV ==== 
     psi = 0.131*[#  11]+0.131*[#  12]+0.131*[#  15]+0.131*[#  16]+0.116*[#   3]
          +0.116*[#   4]+0.116*[#   7]+0.116*[#   8]+0.004*[#   2]+0.004*[#   6]
          +0.002*[#   1]+0.002*[#   5]
    |psi|^2 = 1.002
==== e(  12) =     0.20826 eV ==== 
     psi = 0.092*[#  10]+0.092*[#  14]+0.048*[#   9]+0.048*[#  13]+0.047*[#   2]
          +0.047*[#   6]+0.013*[#   3]+0.013*[#   4]+0.013*[#   7]+0.013*[#   8]
          +0.003*[#  11]+0.003*[#  12]+0.003*[#  15]+0.003*[#  16]
    |psi|^2 = 0.443
==== e(  13) =     3.74870 eV ==== 
     psi = 0.170*[#   3]+0.170*[#   4]+0.170*[#   7]+0.170*[#   8]+0.056*[#   1]
          +0.056*[#   5]+0.011*[#  11]+0.011*[#  12]+0.011*[#  15]+0.011*[#  16]
          +0.003*[#  10]+0.003*[#  14]
    |psi|^2 = 0.840
==== e(  14) =     4.31807 eV ==== 
     psi = 0.023*[#   2]+0.023*[#   6]+0.018*[#   3]+0.018*[#   4]+0.018*[#   7]
          +0.018*[#   8]+0.003*[#   9]+0.003*[#  13]+0.002*[#  10]+0.002*[#  14]
          
    |psi|^2 = 0.132
==== e(  15) =     4.39088 eV ==== 
     psi = 0.085*[#   3]+0.085*[#   4]+0.085*[#   7]+0.085*[#   8]+0.034*[#   1]
          +0.034*[#   5]+0.004*[#  11]+0.004*[#  12]+0.004*[#  15]+0.004*[#  16]
          +0.004*[#  10]+0.004*[#  14]+0.002*[#   9]+0.002*[#  13]
    |psi|^2 = 0.437

 k =   0.0952380951  0.1649572196  0.0000000000
==== e(   1) =   -29.17329 eV ==== 
     psi = 0.348*[#   9]+0.348*[#  13]+0.098*[#   1]+0.098*[#   5]+0.017*[#   2]
          +0.017*[#   6]+0.016*[#  10]+0.016*[#  14]+0.009*[#   3]+0.009*[#   4]
          +0.009*[#   7]+0.009*[#   8]
    |psi|^2 = 0.997
==== e(   2) =   -28.74352 eV ==== 
     psi = 0.365*[#   9]+0.365*[#  13]+0.018*[#   1]+0.018*[#   5]+0.005*[#   2]
          +0.005*[#   6]
    |psi|^2 = 0.776
==== e(   3) =   -19.76815 eV ==== 
     psi = 0.266*[#   1]+0.266*[#   5]+0.103*[#   2]+0.103*[#   6]+0.099*[#   9]
          +0.099*[#  13]+0.023*[#   3]+0.023*[#   4]+0.023*[#   7]+0.023*[#   8]
          +0.011*[#  10]+0.011*[#  14]
    |psi|^2 = 1.049
==== e(   4) =   -12.62206 eV ==== 
     psi = 0.074*[#   9]+0.074*[#  13]+0.027*[#   1]+0.027*[#   5]
    |psi|^2 = 0.207
==== e(   5) =   -10.06870 eV ==== 
     psi = 0.333*[#  10]+0.333*[#  14]+0.077*[#   2]+0.077*[#   6]+0.019*[#  11]
          +0.019*[#  12]+0.019*[#  15]+0.019*[#  16]+0.017*[#   3]+0.017*[#   4]
          +0.017*[#   7]+0.017*[#   8]+0.011*[#   9]+0.011*[#  13]+0.005*[#   1]
          +0.005*[#   5]
    |psi|^2 = 0.995
==== e(   6) =    -9.63271 eV ==== 
     psi = 0.130*[#   3]+0.130*[#   4]+0.130*[#   7]+0.130*[#   8]+0.094*[#  11]
          +0.094*[#  12]+0.094*[#  15]+0.094*[#  16]+0.021*[#   1]+0.021*[#   5]
          +0.011*[#   2]+0.011*[#   6]+0.010*[#  10]+0.010*[#  14]+0.004*[#   9]
          +0.004*[#  13]
    |psi|^2 = 0.987
==== e(   7) =    -8.70935 eV ==== 
     psi = 0.125*[#   3]+0.125*[#   4]+0.125*[#   7]+0.125*[#   8]+0.111*[#  11]
          +0.111*[#  12]+0.111*[#  15]+0.111*[#  16]+0.025*[#   2]+0.025*[#   6]
          +0.006*[#   1]+0.006*[#   5]+0.001*[#   9]+0.001*[#  13]
    |psi|^2 = 1.007
==== e(   8) =    -7.28036 eV ==== 
     psi = 0.221*[#  11]+0.221*[#  12]+0.221*[#  15]+0.221*[#  16]+0.075*[#   2]
          +0.075*[#   6]+0.052*[#  10]+0.052*[#  14]+0.010*[#   1]+0.010*[#   5]
          +0.006*[#   3]+0.006*[#   4]+0.006*[#   7]+0.006*[#   8]+0.003*[#   9]
          +0.003*[#  13]
    |psi|^2 = 1.191
==== e(   9) =    -7.10508 eV ==== 
     psi = 0.236*[#  11]+0.236*[#  12]+0.236*[#  15]+0.236*[#  16]+0.012*[#   3]
          +0.012*[#   4]+0.012*[#   7]+0.012*[#   8]
    |psi|^2 = 0.996
==== e(  10) =    -5.24601 eV ==== 
     psi = 0.332*[#  10]+0.332*[#  14]+0.153*[#  11]+0.153*[#  12]+0.153*[#  15]
          +0.153*[#  16]+0.079*[#   3]+0.079*[#   4]+0.079*[#   7]+0.079*[#   8]
          +0.027*[#   1]+0.027*[#   5]+0.019*[#   2]+0.019*[#   6]
    |psi|^2 = 1.682
==== e(  11) =    -4.56308 eV ==== 
     psi = 0.134*[#  11]+0.134*[#  12]+0.134*[#  15]+0.134*[#  16]+0.113*[#   3]
          +0.113*[#   4]+0.113*[#   7]+0.113*[#   8]+0.004*[#   2]+0.004*[#   6]
          +0.003*[#   1]+0.003*[#   5]
    |psi|^2 = 1.002
==== e(  12) =     0.28926 eV ==== 
     psi = 0.096*[#  10]+0.096*[#  14]+0.048*[#   9]+0.048*[#  13]+0.045*[#   2]
          +0.045*[#   6]+0.014*[#   3]+0.014*[#   4]+0.014*[#   7]+0.014*[#   8]
          +0.003*[#  11]+0.003*[#  12]+0.003*[#  15]+0.003*[#  16]
    |psi|^2 = 0.448
==== e(  13) =     3.79332 eV ==== 
     psi = 0.168*[#   3]+0.168*[#   4]+0.168*[#   7]+0.168*[#   8]+0.060*[#   1]
          +0.060*[#   5]+0.011*[#  11]+0.011*[#  12]+0.011*[#  15]+0.011*[#  16]
          +0.003*[#  10]+0.003*[#  14]
    |psi|^2 = 0.839
==== e(  14) =     4.39266 eV ==== 
     psi = 0.024*[#   2]+0.024*[#   6]+0.018*[#   3]+0.018*[#   4]+0.018*[#   7]
          +0.018*[#   8]+0.003*[#   9]+0.003*[#  13]+0.003*[#  10]+0.003*[#  14]
          
    |psi|^2 = 0.133
==== e(  15) =     4.46242 eV ==== 
     psi = 0.081*[#   3]+0.081*[#   4]+0.081*[#   7]+0.081*[#   8]+0.036*[#   1]
          +0.036*[#   5]+0.004*[#  10]+0.004*[#  11]+0.004*[#  12]+0.004*[#  14]
          +0.004*[#  15]+0.004*[#  16]+0.002*[#   9]+0.002*[#  13]
    |psi|^2 = 0.425

 k =   0.0999999999  0.1732050806  0.0000000000
==== e(   1) =   -29.15188 eV ==== 
     psi = 0.349*[#   9]+0.349*[#  13]+0.096*[#   1]+0.096*[#   5]+0.017*[#   2]
          +0.017*[#   6]+0.016*[#  10]+0.016*[#  14]+0.009*[#   3]+0.009*[#   4]
          +0.009*[#   7]+0.009*[#   8]
    |psi|^2 = 0.997
==== e(   2) =   -28.72859 eV ==== 
     psi = 0.366*[#   9]+0.366*[#  13]+0.018*[#   1]+0.018*[#   5]+0.005*[#   2]
          +0.005*[#   6]
    |psi|^2 = 0.778
==== e(   3) =   -19.72543 eV ==== 
     psi = 0.263*[#   1]+0.263*[#   5]+0.102*[#   2]+0.102*[#   6]+0.099*[#   9]
          +0.099*[#  13]+0.024*[#   3]+0.024*[#   4]+0.024*[#   7]+0.024*[#   8]
          +0.011*[#  10]+0.011*[#  14]
    |psi|^2 = 1.048
==== e(   4) =   -12.60472 eV ==== 
     psi = 0.074*[#   9]+0.074*[#  13]+0.028*[#   1]+0.028*[#   5]+0.001*[#   3]
          +0.001*[#   4]+0.001*[#   7]+0.001*[#   8]
    |psi|^2 = 0.209
==== e(   5) =   -10.09538 eV ==== 
     psi = 0.328*[#  10]+0.328*[#  14]+0.075*[#   2]+0.075*[#   6]+0.021*[#  11]
          +0.021*[#  12]+0.021*[#  15]+0.021*[#  16]+0.019*[#   3]+0.019*[#   4]
          +0.019*[#   7]+0.019*[#   8]+0.011*[#   9]+0.011*[#  13]+0.004*[#   1]
          +0.004*[#   5]
    |psi|^2 = 0.996
==== e(   6) =    -9.75710 eV ==== 
     psi = 0.131*[#   3]+0.131*[#   4]+0.131*[#   7]+0.131*[#   8]+0.091*[#  11]
          +0.091*[#  12]+0.091*[#  15]+0.091*[#  16]+0.022*[#   1]+0.022*[#   5]
          +0.013*[#   2]+0.013*[#   6]+0.011*[#  10]+0.011*[#  14]+0.004*[#   9]
          +0.004*[#  13]
    |psi|^2 = 0.988
==== e(   7) =    -8.76801 eV ==== 
     psi = 0.125*[#   3]+0.125*[#   4]+0.125*[#   7]+0.125*[#   8]+0.108*[#  11]
[...]
    |psi|^2 = 0.876
==== e(  13) =     3.42100 eV ==== 
     psi = 0.212*[#   3]+0.212*[#   4]+0.212*[#   7]+0.212*[#   8]+0.012*[#  11]
          +0.012*[#  12]+0.012*[#  15]+0.012*[#  16]+0.008*[#   1]+0.008*[#   5]
          
    |psi|^2 = 0.914
==== e(  14) =     3.53265 eV ==== 
     psi = 0.228*[#   3]+0.228*[#   4]+0.228*[#   7]+0.228*[#   8]+0.012*[#  11]
          +0.012*[#  12]+0.012*[#  15]+0.012*[#  16]
    |psi|^2 = 0.961
==== e(  15) =     3.65127 eV ==== 
     psi = 0.019*[#   2]+0.019*[#   6]+0.010*[#   3]+0.010*[#   4]+0.010*[#   7]
          +0.010*[#   8]+0.002*[#   9]+0.002*[#  10]+0.002*[#  13]+0.002*[#  14]
          +0.001*[#   1]+0.001*[#   5]
    |psi|^2 = 0.091

 k =   0.0357142857  0.0206196525  0.0000000000
==== e(   1) =   -29.38729 eV ==== 
     psi = 0.343*[#   9]+0.343*[#  13]+0.122*[#   1]+0.122*[#   5]+0.017*[#  10]
          +0.017*[#  14]+0.014*[#   2]+0.014*[#   6]
    |psi|^2 = 0.996
==== e(   2) =   -28.89505 eV ==== 
     psi = 0.355*[#   9]+0.355*[#  13]+0.017*[#   1]+0.017*[#   5]+0.001*[#   2]
          +0.001*[#   6]
    |psi|^2 = 0.744
==== e(   3) =   -20.16612 eV ==== 
     psi = 0.296*[#   1]+0.296*[#   5]+0.115*[#   2]+0.115*[#   6]+0.105*[#   9]
          +0.105*[#  13]+0.011*[#  10]+0.011*[#  14]+0.001*[#   3]+0.001*[#   4]
          +0.001*[#   7]+0.001*[#   8]
    |psi|^2 = 1.057
==== e(   4) =   -12.81385 eV ==== 
     psi = 0.078*[#   9]+0.078*[#  13]+0.022*[#   1]+0.022*[#   5]
    |psi|^2 = 0.200
==== e(   5) =    -9.85283 eV ==== 
     psi = 0.374*[#  10]+0.374*[#  14]+0.085*[#   2]+0.085*[#   6]+0.020*[#   1]
          +0.020*[#   5]+0.013*[#   9]+0.013*[#  13]
    |psi|^2 = 0.991
==== e(   6) =    -8.18978 eV ==== 
     psi = 0.140*[#  11]+0.140*[#  12]+0.140*[#  15]+0.140*[#  16]+0.108*[#   3]
          +0.108*[#   4]+0.108*[#   7]+0.108*[#   8]+0.001*[#   1]+0.001*[#   2]
          +0.001*[#   5]+0.001*[#   6]+0.001*[#  10]+0.001*[#  14]
    |psi|^2 = 0.999
==== e(   7) =    -8.12884 eV ==== 
     psi = 0.143*[#  11]+0.143*[#  12]+0.143*[#  15]+0.143*[#  16]+0.107*[#   3]
          +0.107*[#   4]+0.107*[#   7]+0.107*[#   8]+0.002*[#   2]+0.002*[#   6]
          
    |psi|^2 = 1.002
==== e(   8) =    -6.94607 eV ==== 
     psi = 0.236*[#  11]+0.236*[#  12]+0.236*[#  15]+0.236*[#  16]+0.210*[#  10]
          +0.210*[#  14]+0.161*[#   2]+0.161*[#   6]+0.012*[#   3]+0.012*[#   4]
          +0.012*[#   7]+0.012*[#   8]
    |psi|^2 = 1.737
==== e(   9) =    -6.92808 eV ==== 
     psi = 0.237*[#  11]+0.237*[#  12]+0.237*[#  15]+0.237*[#  16]+0.013*[#   3]
          +0.013*[#   4]+0.013*[#   7]+0.013*[#   8]
    |psi|^2 = 0.997
==== e(  10) =    -4.04398 eV ==== 
     psi = 0.138*[#   3]+0.138*[#   4]+0.138*[#   7]+0.138*[#   8]+0.118*[#  10]
          +0.118*[#  14]+0.109*[#  11]+0.109*[#  12]+0.109*[#  15]+0.109*[#  16]
          +0.006*[#   2]+0.006*[#   6]+0.003*[#   1]+0.003*[#   5]
    |psi|^2 = 1.241
==== e(  11) =    -3.98417 eV ==== 
     psi = 0.142*[#   3]+0.142*[#   4]+0.142*[#   7]+0.142*[#   8]+0.107*[#  11]
          +0.107*[#  12]+0.107*[#  15]+0.107*[#  16]+0.001*[#   2]+0.001*[#   6]
          
    |psi|^2 = 0.997
==== e(  12) =    -0.73373 eV ==== 
     psi = 0.206*[#   2]+0.206*[#   6]+0.163*[#  10]+0.163*[#  14]+0.055*[#   9]
          +0.055*[#  13]+0.009*[#   1]+0.009*[#   5]+0.002*[#   3]+0.002*[#   4]
          +0.002*[#   7]+0.002*[#   8]
    |psi|^2 = 0.877
==== e(  13) =     3.41698 eV ==== 
     psi = 0.216*[#   3]+0.216*[#   4]+0.216*[#   7]+0.216*[#   8]+0.012*[#  11]
          +0.012*[#  12]+0.012*[#  15]+0.012*[#  16]+0.006*[#   1]+0.006*[#   5]
          
    |psi|^2 = 0.925
==== e(  14) =     3.49481 eV ==== 
     psi = 0.228*[#   3]+0.228*[#   4]+0.228*[#   7]+0.228*[#   8]+0.012*[#  11]
          +0.012*[#  12]+0.012*[#  15]+0.012*[#  16]
    |psi|^2 = 0.960
==== e(  15) =     3.63316 eV ==== 
     psi = 0.019*[#   2]+0.019*[#   6]+0.008*[#   3]+0.008*[#   4]+0.008*[#   7]
          +0.008*[#   8]+0.002*[#  10]+0.002*[#  14]+0.002*[#   9]+0.002*[#  13]
          +0.002*[#   1]+0.002*[#   5]
    |psi|^2 = 0.083

 k =   0.0285714286  0.0164957220  0.0000000000
==== e(   1) =   -29.39132 eV ==== 
     psi = 0.343*[#   9]+0.343*[#  13]+0.123*[#   1]+0.123*[#   5]+0.017*[#  10]
          +0.017*[#  14]+0.014*[#   2]+0.014*[#   6]
    |psi|^2 = 0.996
==== e(   2) =   -28.89795 eV ==== 
     psi = 0.354*[#   9]+0.354*[#  13]+0.016*[#   1]+0.016*[#   5]
    |psi|^2 = 0.743
==== e(   3) =   -20.17318 eV ==== 
     psi = 0.296*[#   1]+0.296*[#   5]+0.115*[#   2]+0.115*[#   6]+0.105*[#   9]
          +0.105*[#  13]+0.011*[#  10]+0.011*[#  14]
    |psi|^2 = 1.058
==== e(   4) =   -12.81767 eV ==== 
     psi = 0.078*[#   9]+0.078*[#  13]+0.022*[#   1]+0.022*[#   5]
    |psi|^2 = 0.200
==== e(   5) =    -9.84954 eV ==== 
     psi = 0.375*[#  10]+0.375*[#  14]+0.085*[#   2]+0.085*[#   6]+0.020*[#   1]
          +0.020*[#   5]+0.013*[#   9]+0.013*[#  13]
    |psi|^2 = 0.991
==== e(   6) =    -8.15774 eV ==== 
     psi = 0.142*[#  11]+0.142*[#  12]+0.142*[#  15]+0.142*[#  16]+0.107*[#   3]
          +0.107*[#   4]+0.107*[#   7]+0.107*[#   8]
    |psi|^2 = 0.999
==== e(   7) =    -8.11856 eV ==== 
     psi = 0.143*[#  11]+0.143*[#  12]+0.143*[#  15]+0.143*[#  16]+0.107*[#   3]
          +0.107*[#   4]+0.107*[#   7]+0.107*[#   8]+0.001*[#   2]+0.001*[#   6]
          
    |psi|^2 = 1.001
==== e(   8) =    -6.93797 eV ==== 
     psi = 0.236*[#  11]+0.236*[#  12]+0.236*[#  15]+0.236*[#  16]+0.212*[#  10]
          +0.212*[#  14]+0.160*[#   2]+0.160*[#   6]+0.013*[#   3]+0.013*[#   4]
          +0.013*[#   7]+0.013*[#   8]
    |psi|^2 = 1.740
==== e(   9) =    -6.92645 eV ==== 
     psi = 0.236*[#  11]+0.236*[#  12]+0.236*[#  15]+0.236*[#  16]+0.013*[#   3]
          +0.013*[#   4]+0.013*[#   7]+0.013*[#   8]
    |psi|^2 = 0.997
==== e(  10) =    -4.01160 eV ==== 
     psi = 0.140*[#   3]+0.140*[#   4]+0.140*[#   7]+0.140*[#   8]+0.118*[#  10]
          +0.118*[#  14]+0.108*[#  11]+0.108*[#  12]+0.108*[#  15]+0.108*[#  16]
          +0.006*[#   2]+0.006*[#   6]+0.002*[#   1]+0.002*[#   5]
    |psi|^2 = 1.242
==== e(  11) =    -3.97288 eV ==== 
     psi = 0.142*[#   3]+0.142*[#   4]+0.142*[#   7]+0.142*[#   8]+0.106*[#  11]
          +0.106*[#  12]+0.106*[#  15]+0.106*[#  16]
    |psi|^2 = 0.996
==== e(  12) =    -0.76044 eV ==== 
     psi = 0.209*[#   2]+0.209*[#   6]+0.161*[#  10]+0.161*[#  14]+0.056*[#   9]
          +0.056*[#  13]+0.010*[#   1]+0.010*[#   5]+0.001*[#   3]+0.001*[#   4]
          +0.001*[#   7]+0.001*[#   8]
    |psi|^2 = 0.878
==== e(  13) =     3.41365 eV ==== 
     psi = 0.220*[#   3]+0.220*[#   4]+0.220*[#   7]+0.220*[#   8]+0.012*[#  11]
          +0.012*[#  12]+0.012*[#  15]+0.012*[#  16]+0.004*[#   1]+0.004*[#   5]
          
    |psi|^2 = 0.936
==== e(  14) =     3.46363 eV ==== 
     psi = 0.228*[#   3]+0.228*[#   4]+0.228*[#   7]+0.228*[#   8]+0.012*[#  11]
          +0.012*[#  12]+0.012*[#  15]+0.012*[#  16]
    |psi|^2 = 0.960
==== e(  15) =     3.61809 eV ==== 
     psi = 0.019*[#   2]+0.019*[#   6]+0.006*[#   3]+0.006*[#   4]+0.006*[#   7]
          +0.006*[#   8]+0.002*[#  10]+0.002*[#  14]+0.002*[#   9]+0.002*[#  13]
          +0.002*[#   1]+0.002*[#   5]
    |psi|^2 = 0.074

 k =   0.0214285714  0.0123717915  0.0000000000
==== e(   1) =   -29.39446 eV ==== 
     psi = 0.343*[#   9]+0.343*[#  13]+0.123*[#   1]+0.123*[#   5]+0.017*[#  10]
          +0.017*[#  14]+0.014*[#   2]+0.014*[#   6]
    |psi|^2 = 0.996
==== e(   2) =   -28.90020 eV ==== 
     psi = 0.354*[#   9]+0.354*[#  13]+0.016*[#   1]+0.016*[#   5]
    |psi|^2 = 0.742
==== e(   3) =   -20.17867 eV ==== 
     psi = 0.297*[#   1]+0.297*[#   5]+0.115*[#   2]+0.115*[#   6]+0.105*[#   9]
          +0.105*[#  13]+0.011*[#  10]+0.011*[#  14]
    |psi|^2 = 1.058
==== e(   4) =   -12.82065 eV ==== 
     psi = 0.078*[#   9]+0.078*[#  13]+0.022*[#   1]+0.022*[#   5]
    |psi|^2 = 0.200
==== e(   5) =    -9.84700 eV ==== 
     psi = 0.375*[#  10]+0.375*[#  14]+0.086*[#   2]+0.086*[#   6]+0.021*[#   1]
          +0.021*[#   5]+0.013*[#   9]+0.013*[#  13]
    |psi|^2 = 0.991
==== e(   6) =    -8.13265 eV ==== 
     psi = 0.143*[#  11]+0.143*[#  12]+0.143*[#  15]+0.143*[#  16]+0.106*[#   3]
          +0.106*[#   4]+0.106*[#   7]+0.106*[#   8]
    |psi|^2 = 0.999
==== e(   7) =    -8.11052 eV ==== 
     psi = 0.143*[#  11]+0.143*[#  12]+0.143*[#  15]+0.143*[#  16]+0.106*[#   3]
          +0.106*[#   4]+0.106*[#   7]+0.106*[#   8]
    |psi|^2 = 1.000
==== e(   8) =    -6.93167 eV ==== 
     psi = 0.236*[#  11]+0.236*[#  12]+0.236*[#  15]+0.236*[#  16]+0.214*[#  10]
          +0.214*[#  14]+0.159*[#   2]+0.159*[#   6]+0.013*[#   3]+0.013*[#   4]
          +0.013*[#   7]+0.013*[#   8]
    |psi|^2 = 1.743
==== e(   9) =    -6.92518 eV ==== 
     psi = 0.236*[#  11]+0.236*[#  12]+0.236*[#  15]+0.236*[#  16]+0.013*[#   3]
          +0.013*[#   4]+0.013*[#   7]+0.013*[#   8]
    |psi|^2 = 0.997
==== e(  10) =    -3.98598 eV ==== 
     psi = 0.141*[#   3]+0.141*[#   4]+0.141*[#   7]+0.141*[#   8]+0.118*[#  10]
          +0.118*[#  14]+0.107*[#  11]+0.107*[#  12]+0.107*[#  15]+0.107*[#  16]
          +0.006*[#   2]+0.006*[#   6]+0.001*[#   1]+0.001*[#   5]
    |psi|^2 = 1.243
==== e(  11) =    -3.96400 eV ==== 
     psi = 0.143*[#   3]+0.143*[#   4]+0.143*[#   7]+0.143*[#   8]+0.106*[#  11]
          +0.106*[#  12]+0.106*[#  15]+0.106*[#  16]
    |psi|^2 = 0.996
==== e(  12) =    -0.78166 eV ==== 
     psi = 0.212*[#   2]+0.212*[#   6]+0.160*[#  10]+0.160*[#  14]+0.056*[#   9]
          +0.056*[#  13]+0.010*[#   1]+0.010*[#   5]
    |psi|^2 = 0.878
==== e(  13) =     3.41104 eV ==== 
     psi = 0.223*[#   3]+0.223*[#   4]+0.223*[#   7]+0.223*[#   8]+0.012*[#  11]
          +0.012*[#  12]+0.012*[#  15]+0.012*[#  16]+0.002*[#   1]+0.002*[#   5]
          
    |psi|^2 = 0.946
==== e(  14) =     3.43923 eV ==== 
     psi = 0.228*[#   3]+0.228*[#   4]+0.228*[#   7]+0.228*[#   8]+0.012*[#  11]
          +0.012*[#  12]+0.012*[#  15]+0.012*[#  16]
    |psi|^2 = 0.960
==== e(  15) =     3.60619 eV ==== 
     psi = 0.019*[#   2]+0.019*[#   6]+0.003*[#   3]+0.003*[#   4]+0.003*[#   7]
          +0.003*[#   8]+0.003*[#  10]+0.003*[#  14]+0.002*[#   1]+0.002*[#   5]
          +0.002*[#   9]+0.002*[#  13]
    |psi|^2 = 0.066

 k =   0.0142857143  0.0082478610  0.0000000000
==== e(   1) =   -29.39671 eV ==== 
     psi = 0.343*[#   9]+0.343*[#  13]+0.124*[#   1]+0.124*[#   5]+0.017*[#  10]
          +0.017*[#  14]+0.014*[#   2]+0.014*[#   6]
    |psi|^2 = 0.996
==== e(   2) =   -28.90181 eV ==== 
     psi = 0.354*[#   9]+0.354*[#  13]+0.016*[#   1]+0.016*[#   5]
    |psi|^2 = 0.742
==== e(   3) =   -20.18259 eV ==== 
     psi = 0.297*[#   1]+0.297*[#   5]+0.115*[#   2]+0.115*[#   6]+0.105*[#   9]
          +0.105*[#  13]+0.011*[#  10]+0.011*[#  14]
    |psi|^2 = 1.058
==== e(   4) =   -12.82278 eV ==== 
     psi = 0.079*[#   9]+0.079*[#  13]+0.021*[#   1]+0.021*[#   5]
    |psi|^2 = 0.200
==== e(   5) =    -9.84519 eV ==== 
     psi = 0.376*[#  10]+0.376*[#  14]+0.086*[#   2]+0.086*[#   6]+0.021*[#   1]
          +0.021*[#   5]+0.013*[#   9]+0.013*[#  13]
    |psi|^2 = 0.991
==== e(   6) =    -8.11462 eV ==== 
     psi = 0.143*[#  11]+0.143*[#  12]+0.143*[#  15]+0.143*[#  16]+0.106*[#   3]
          +0.106*[#   4]+0.106*[#   7]+0.106*[#   8]
    |psi|^2 = 0.999
==== e(   7) =    -8.10476 eV ==== 
     psi = 0.144*[#  11]+0.144*[#  12]+0.144*[#  15]+0.144*[#  16]+0.106*[#   3]
          +0.106*[#   4]+0.106*[#   7]+0.106*[#   8]
    |psi|^2 = 0.999
==== e(   8) =    -6.92717 eV ==== 
     psi = 0.236*[#  11]+0.236*[#  12]+0.236*[#  15]+0.236*[#  16]+0.215*[#  10]
          +0.215*[#  14]+0.159*[#   2]+0.159*[#   6]+0.013*[#   3]+0.013*[#   4]
          +0.013*[#   7]+0.013*[#   8]
    |psi|^2 = 1.744
==== e(   9) =    -6.92428 eV ==== 
     psi = 0.236*[#  11]+0.236*[#  12]+0.236*[#  15]+0.236*[#  16]+0.013*[#   3]
          +0.013*[#   4]+0.013*[#   7]+0.013*[#   8]
    |psi|^2 = 0.997
==== e(  10) =    -3.96744 eV ==== 
     psi = 0.142*[#   3]+0.142*[#   4]+0.142*[#   7]+0.142*[#   8]+0.118*[#  10]
          +0.118*[#  14]+0.106*[#  11]+0.106*[#  12]+0.106*[#  15]+0.106*[#  16]
          +0.006*[#   2]+0.006*[#   6]
    |psi|^2 = 1.243
==== e(  11) =    -3.95761 eV ==== 
     psi = 0.143*[#   3]+0.143*[#   4]+0.143*[#   7]+0.143*[#   8]+0.106*[#  11]
          +0.106*[#  12]+0.106*[#  15]+0.106*[#  16]
    |psi|^2 = 0.995
==== e(  12) =    -0.79707 eV ==== 
     psi = 0.214*[#   2]+0.214*[#   6]+0.159*[#  10]+0.159*[#  14]+0.056*[#   9]
          +0.056*[#  13]+0.010*[#   1]+0.010*[#   5]
    |psi|^2 = 0.879
==== e(  13) =     3.40917 eV ==== 
     psi = 0.226*[#   3]+0.226*[#   4]+0.226*[#   7]+0.226*[#   8]+0.012*[#  11]
          +0.012*[#  12]+0.012*[#  15]+0.012*[#  16]
    |psi|^2 = 0.953
==== e(  14) =     3.42172 eV ==== 
     psi = 0.228*[#   3]+0.228*[#   4]+0.228*[#   7]+0.228*[#   8]+0.012*[#  11]
          +0.012*[#  12]+0.012*[#  15]+0.012*[#  16]
    |psi|^2 = 0.960
==== e(  15) =     3.59760 eV ==== 
     psi = 0.019*[#   2]+0.019*[#   6]+0.003*[#   1]+0.003*[#   5]+0.003*[#  10]
          +0.003*[#  14]+0.002*[#   9]+0.002*[#  13]+0.002*[#   3]+0.002*[#   4]
          +0.002*[#   7]+0.002*[#   8]
    |psi|^2 = 0.059

 k =   0.0071428571  0.0041239305  0.0000000000
==== e(   1) =   -29.39806 eV ==== 
     psi = 0.343*[#   9]+0.343*[#  13]+0.124*[#   1]+0.124*[#   5]+0.017*[#  10]
          +0.017*[#  14]+0.014*[#   2]+0.014*[#   6]
    |psi|^2 = 0.996
==== e(   2) =   -28.90278 eV ==== 
     psi = 0.354*[#   9]+0.354*[#  13]+0.016*[#   1]+0.016*[#   5]
    |psi|^2 = 0.741
==== e(   3) =   -20.18495 eV ==== 
     psi = 0.297*[#   1]+0.297*[#   5]+0.115*[#   2]+0.115*[#   6]+0.105*[#   9]
          +0.105*[#  13]+0.011*[#  10]+0.011*[#  14]
    |psi|^2 = 1.058
==== e(   4) =   -12.82406 eV ==== 
     psi = 0.079*[#   9]+0.079*[#  13]+0.021*[#   1]+0.021*[#   5]
    |psi|^2 = 0.200
==== e(   5) =    -9.84411 eV ==== 
     psi = 0.376*[#  10]+0.376*[#  14]+0.086*[#   2]+0.086*[#   6]+0.021*[#   1]
          +0.021*[#   5]+0.013*[#   9]+0.013*[#  13]
    |psi|^2 = 0.991
==== e(   6) =    -8.10377 eV ==== 
     psi = 0.144*[#  11]+0.144*[#  12]+0.144*[#  15]+0.144*[#  16]+0.106*[#   3]
          +0.106*[#   4]+0.106*[#   7]+0.106*[#   8]
    |psi|^2 = 0.999
==== e(   7) =    -8.10130 eV ==== 
     psi = 0.144*[#  11]+0.144*[#  12]+0.144*[#  15]+0.144*[#  16]+0.106*[#   3]
          +0.106*[#   4]+0.106*[#   7]+0.106*[#   8]
    |psi|^2 = 0.999
==== e(   8) =    -6.92446 eV ==== 
     psi = 0.236*[#  11]+0.236*[#  12]+0.236*[#  15]+0.236*[#  16]+0.216*[#  10]
          +0.216*[#  14]+0.159*[#   2]+0.159*[#   6]+0.013*[#   3]+0.013*[#   4]
          +0.013*[#   7]+0.013*[#   8]
    |psi|^2 = 1.746
==== e(   9) =    -6.92374 eV ==== 
     psi = 0.236*[#  11]+0.236*[#  12]+0.236*[#  15]+0.236*[#  16]+0.013*[#   3]
          +0.013*[#   4]+0.013*[#   7]+0.013*[#   8]
    |psi|^2 = 0.997
==== e(  10) =    -3.95621 eV ==== 
     psi = 0.143*[#   3]+0.143*[#   4]+0.143*[#   7]+0.143*[#   8]+0.118*[#  10]
          +0.118*[#  14]+0.105*[#  11]+0.105*[#  12]+0.105*[#  15]+0.105*[#  16]
          +0.006*[#   2]+0.006*[#   6]
    |psi|^2 = 1.244
==== e(  11) =    -3.95375 eV ==== 
     psi = 0.143*[#   3]+0.143*[#   4]+0.143*[#   7]+0.143*[#   8]+0.105*[#  11]
          +0.105*[#  12]+0.105*[#  15]+0.105*[#  16]
    |psi|^2 = 0.995
==== e(  12) =    -0.80641 eV ==== 
     psi = 0.215*[#   2]+0.215*[#   6]+0.158*[#  10]+0.158*[#  14]+0.056*[#   9]
          +0.056*[#  13]+0.011*[#   1]+0.011*[#   5]
    |psi|^2 = 0.879
==== e(  13) =     3.40804 eV ==== 
     psi = 0.227*[#   3]+0.227*[#   4]+0.227*[#   7]+0.227*[#   8]+0.012*[#  11]
          +0.012*[#  12]+0.012*[#  15]+0.012*[#  16]
    |psi|^2 = 0.959
==== e(  14) =     3.41118 eV ==== 
     psi = 0.228*[#   3]+0.228*[#   4]+0.228*[#   7]+0.228*[#   8]+0.012*[#  11]
          +0.012*[#  12]+0.012*[#  15]+0.012*[#  16]
    |psi|^2 = 0.960
==== e(  15) =     3.59239 eV ==== 
     psi = 0.019*[#   2]+0.019*[#   6]+0.003*[#   1]+0.003*[#   5]+0.003*[#  10]
          +0.003*[#  14]+0.002*[#   9]+0.002*[#  13]
    |psi|^2 = 0.054

 k =   0.0000000000  0.0000000000  0.0000000000
==== e(   1) =   -29.39851 eV ==== 
     psi = 0.343*[#   9]+0.343*[#  13]+0.124*[#   1]+0.124*[#   5]+0.017*[#  10]
          +0.017*[#  14]+0.014*[#   2]+0.014*[#   6]
    |psi|^2 = 0.996
==== e(   2) =   -28.90311 eV ==== 
     psi = 0.354*[#   9]+0.354*[#  13]+0.016*[#   1]+0.016*[#   5]
    |psi|^2 = 0.741
==== e(   3) =   -20.18573 eV ==== 
     psi = 0.298*[#   1]+0.298*[#   5]+0.115*[#   2]+0.115*[#   6]+0.105*[#   9]
          +0.105*[#  13]+0.011*[#  10]+0.011*[#  14]
    |psi|^2 = 1.058
==== e(   4) =   -12.82449 eV ==== 
     psi = 0.079*[#   9]+0.079*[#  13]+0.021*[#   1]+0.021*[#   5]
    |psi|^2 = 0.200
==== e(   5) =    -9.84375 eV ==== 
     psi = 0.376*[#  10]+0.376*[#  14]+0.086*[#   2]+0.086*[#   6]+0.021*[#   1]
          +0.021*[#   5]+0.013*[#   9]+0.013*[#  13]
    |psi|^2 = 0.991
==== e(   6) =    -8.10014 eV ==== 
     psi = 0.144*[#  11]+0.144*[#  12]+0.144*[#  15]+0.144*[#  16]+0.106*[#   3]
          +0.106*[#   4]+0.106*[#   7]+0.106*[#   8]
    |psi|^2 = 0.999
==== e(   7) =    -8.10014 eV ==== 
     psi = 0.144*[#  11]+0.144*[#  12]+0.144*[#  15]+0.144*[#  16]+0.106*[#   3]
          +0.106*[#   4]+0.106*[#   7]+0.106*[#   8]
    |psi|^2 = 0.999
==== e(   8) =    -6.92356 eV ==== 
     psi = 0.236*[#  11]+0.236*[#  12]+0.236*[#  15]+0.236*[#  16]+0.216*[#  10]
          +0.216*[#  14]+0.158*[#   2]+0.158*[#   6]+0.013*[#   3]+0.013*[#   4]
          +0.013*[#   7]+0.013*[#   8]
    |psi|^2 = 1.746
==== e(   9) =    -6.92356 eV ==== 
     psi = 0.236*[#  11]+0.236*[#  12]+0.236*[#  15]+0.236*[#  16]+0.013*[#   3]
          +0.013*[#   4]+0.013*[#   7]+0.013*[#   8]
    |psi|^2 = 0.997
==== e(  10) =    -3.95246 eV ==== 
     psi = 0.355*[#  10]+0.355*[#  14]+0.143*[#   3]+0.143*[#   4]+0.143*[#   7]
          +0.143*[#   8]+0.105*[#  11]+0.105*[#  12]+0.105*[#  15]+0.105*[#  16]
          +0.019*[#   2]+0.019*[#   6]
    |psi|^2 = 1.743
==== e(  11) =    -3.95246 eV ==== 
     psi = 0.143*[#   3]+0.143*[#   4]+0.143*[#   7]+0.143*[#   8]+0.105*[#  11]
          +0.105*[#  12]+0.105*[#  15]+0.105*[#  16]
    |psi|^2 = 0.995
==== e(  12) =    -0.80955 eV ==== 
     psi = 0.215*[#   2]+0.215*[#   6]+0.158*[#  10]+0.158*[#  14]+0.056*[#   9]
          +0.056*[#  13]+0.011*[#   1]+0.011*[#   5]
    |psi|^2 = 0.879
==== e(  13) =     3.40767 eV ==== 
     psi = 0.228*[#   3]+0.228*[#   4]+0.228*[#   7]+0.228*[#   8]+0.012*[#  11]
          +0.012*[#  12]+0.012*[#  15]+0.012*[#  16]
    |psi|^2 = 0.960
==== e(  14) =     3.40767 eV ==== 
     psi = 0.228*[#   3]+0.228*[#   4]+0.228*[#   7]+0.228*[#   8]+0.012*[#  11]
          +0.012*[#  12]+0.012*[#  15]+0.012*[#  16]
    |psi|^2 = 0.960
==== e(  15) =     3.59065 eV ==== 
     psi = 0.019*[#   2]+0.019*[#   6]+0.003*[#   1]+0.003*[#   5]+0.003*[#  10]
          +0.003*[#  14]+0.002*[#   9]+0.002*[#  13]
    |psi|^2 = 0.053

Lowdin Charges: 

     Atom #   1: total charge =   3.8099, s =  0.9701, 
     Atom #   1: total charge =   3.8099, p =  2.8398, pz=  0.7824, px=  1.0287, py=  1.0287, 
     Atom #   2: total charge =   3.8099, s =  0.9701, 
     Atom #   2: total charge =   3.8099, p =  2.8398, pz=  0.7824, px=  1.0287, py=  1.0287, 
     Atom #   3: total charge =   7.2069, s =  1.8392, 
     Atom #   3: total charge =   7.2069, p =  5.3676, pz=  1.4878, px=  1.9399, py=  1.9399, 
     Atom #   4: total charge =   7.2069, s =  1.8392, 
     Atom #   4: total charge =   7.2069, p =  5.3676, pz=  1.4878, px=  1.9399, py=  1.9399, 
     Spilling Parameter:  -0.0015

     PROJWFC      :   1m18.49s CPU   1m26.51s WALL


   This run was terminated on:  17:41:48  24Feb2024            

=------------------------------------------------------------------------------=
   JOB DONE.
=------------------------------------------------------------------------------=
