
     Program PWSCF v.7.1 starts on 24Feb2024 at 16:27: 9 

     This program is part of the open-source Quantum ESPRESSO suite
     for quantum simulation of materials; please cite
         "P. Giannozzi et al., J. Phys.:Condens. Matter 21 395502 (2009);
         "P. Giannozzi et al., J. Phys.:Condens. Matter 29 465901 (2017);
         "P. Giannozzi et al., J. Chem. Phys. 152 154105 (2020);
          URL http://www.quantum-espresso.org", 
     in publications or presentations arising from this work. More details at
     http://www.quantum-espresso.org/quote

     Parallel version (MPI), running on    24 processors

     MPI processes distributed on     1 nodes
     251197 MiB available memory on the printing compute node when the environment starts

     Reading input from scf.in

     Current dimensions of program PWSCF are:
     Max number of different atomic species (ntypx) = 10
     Max number of k-points (npk) =  40000
     Max angular momentum in pseudopotentials (lmaxx) =  4

     K-points division:     npool     =       6
     R & G space division:  proc/nbgrp/npool/nimage =       4
     Subspace diagonalization in iterative solution of the eigenvalue problem:
     a serial algorithm will be used


     Parallelization info
     --------------------
     sticks:   dense  smooth     PW     G-vecs:    dense   smooth      PW
     Min         832     832    228               277002   277002   38740
     Max         833     833    229               277019   277019   38753
     Sum        3331    3331    913              1108055  1108055  154987

     Using Slab Decomposition



     bravais-lattice index     =            4
     lattice parameter (alat)  =       4.9233  a.u.
     unit-cell volume          =     733.8532 (a.u.)^3
     number of atoms/cell      =            4
     number of atomic types    =            2
     number of electrons       =        22.00
     number of Kohn-Sham states=           15
     kinetic-energy cutoff     =     500.0000  Ry
     charge density cutoff     =    2000.0000  Ry
     scf convergence threshold =      1.0E-12
     mixing beta               =       0.7000
     number of iterations used =            8  plain     mixing
     Exchange-correlation=  SLA  PW   PBX  PBC
                           (   1   4   3   4   0   0   0)

     celldm(1)=   4.923251  celldm(2)=   0.000000  celldm(3)=   7.101051
     celldm(4)=   0.000000  celldm(5)=   0.000000  celldm(6)=   0.000000

     crystal axes: (cart. coord. in units of alat)
               a(1) = (   1.000000   0.000000   0.000000 )  
               a(2) = (  -0.500000   0.866025   0.000000 )  
               a(3) = (   0.000000   0.000000   7.101051 )  

     reciprocal axes: (cart. coord. in units 2 pi/alat)
               b(1) = (  1.000000  0.577350 -0.000000 )  
               b(2) = (  0.000000  1.154701  0.000000 )  
               b(3) = (  0.000000 -0.000000  0.140824 )  


     PseudoPot. # 1 for C  read from file:
     ../pseudo/c_pbe_v1.2.uspp.F.UPF
     MD5 check sum: d1aef80898a10debaa0f26306b886e00
     Pseudo is Ultrasoft + core correction, Zval =  4.0
     Generated by new atomic code, or converted to UPF format
     Using radial grid of  721 points,  4 beta functions with: 
                l(1) =   0
                l(2) =   0
                l(3) =   1
                l(4) =   1
     Q(r) pseudized with  8 coefficients,  rinner =    1.100   1.100   1.100


     PseudoPot. # 2 for F  read from file:
     ../pseudo/f_pbe_v1.4.uspp.F.UPF
     MD5 check sum: 4c38b6a325caf53ec0e86aed9459de46
     Pseudo is Ultrasoft, Zval =  7.0
     Generated by new atomic code, or converted to UPF format
     Using radial grid of  799 points,  4 beta functions with: 
                l(1) =   0
                l(2) =   0
                l(3) =   1
                l(4) =   1
     Q(r) pseudized with  8 coefficients,  rinner =    0.950   0.950   0.950


     atomic species   valence    mass     pseudopotential
        C              4.00    12.01070     C ( 1.00)
        F              7.00    18.99840     F ( 1.00)

     12 Sym. Ops., with inversion, found ( 8 have fractional translation)


                                    s                        frac. trans.

      isym =  1     identity                                     

 cryst.   s( 1) = (     1          0          0      )
                  (     0          1          0      )
                  (     0          0          1      )

 cart.    s( 1) = (  1.0000000  0.0000000  0.0000000 )
                  (  0.0000000  1.0000000  0.0000000 )
                  (  0.0000000  0.0000000  1.0000000 )


      isym =  2     180 deg rotation - cart. axis [1,0,0]        

 cryst.   s( 2) = (     1          0          0      )
                  (    -1         -1          0      )
                  (     0          0         -1      )

 cart.    s( 2) = (  1.0000000  0.0000000  0.0000000 )
                  (  0.0000000 -1.0000000  0.0000000 )
                  (  0.0000000  0.0000000 -1.0000000 )


      isym =  3     120 deg rotation - cryst. axis [0,0,1]       

 cryst.   s( 3) = (     0          1          0      )    f =( -0.5000000 )
                  (    -1         -1          0      )       ( -0.5000000 )
                  (     0          0          1      )       (  0.0000000 )

 cart.    s( 3) = ( -0.5000000 -0.8660254  0.0000000 )    f =( -0.2500000 )
                  (  0.8660254 -0.5000000  0.0000000 )       ( -0.4330127 )
                  (  0.0000000  0.0000000  1.0000000 )       (  0.0000000 )


      isym =  4     120 deg rotation - cryst. axis [0,0,-1]      

 cryst.   s( 4) = (    -1         -1          0      )    f =(  0.0000000 )
                  (     1          0          0      )       ( -0.5000000 )
                  (     0          0          1      )       (  0.0000000 )

 cart.    s( 4) = ( -0.5000000  0.8660254  0.0000000 )    f =(  0.2500000 )
                  ( -0.8660254 -0.5000000  0.0000000 )       ( -0.4330127 )
                  (  0.0000000  0.0000000  1.0000000 )       (  0.0000000 )


      isym =  5     180 deg rotation - cryst. axis [0,1,0]       

 cryst.   s( 5) = (    -1         -1          0      )    f =(  0.0000000 )
                  (     0          1          0      )       ( -0.5000000 )
                  (     0          0         -1      )       (  0.0000000 )

 cart.    s( 5) = ( -0.5000000 -0.8660254  0.0000000 )    f =(  0.2500000 )
                  ( -0.8660254  0.5000000  0.0000000 )       ( -0.4330127 )
                  (  0.0000000  0.0000000 -1.0000000 )       (  0.0000000 )


      isym =  6     180 deg rotation - cryst. axis [1,1,0]       

 cryst.   s( 6) = (     0          1          0      )    f =(  0.5000000 )
                  (     1          0          0      )       (  0.5000000 )
                  (     0          0         -1      )       (  0.0000000 )

 cart.    s( 6) = ( -0.5000000  0.8660254  0.0000000 )    f =(  0.2500000 )
                  (  0.8660254  0.5000000  0.0000000 )       (  0.4330127 )
                  (  0.0000000  0.0000000 -1.0000000 )       (  0.0000000 )


      isym =  7     inversion                                    

 cryst.   s( 7) = (    -1          0          0      )
                  (     0         -1          0      )
                  (     0          0         -1      )

 cart.    s( 7) = ( -1.0000000  0.0000000  0.0000000 )
                  (  0.0000000 -1.0000000  0.0000000 )
                  (  0.0000000  0.0000000 -1.0000000 )


      isym =  8     inv. 180 deg rotation - cart. axis [1,0,0]   

 cryst.   s( 8) = (    -1          0          0      )
                  (     1          1          0      )
                  (     0          0          1      )

 cart.    s( 8) = ( -1.0000000  0.0000000  0.0000000 )
                  (  0.0000000  1.0000000  0.0000000 )
                  (  0.0000000  0.0000000  1.0000000 )


      isym =  9     inv. 120 deg rotation - cryst. axis [0,0,1]  

 cryst.   s( 9) = (     0         -1          0      )    f =(  0.5000000 )
                  (     1          1          0      )       ( -0.5000000 )
                  (     0          0         -1      )       (  0.0000000 )

 cart.    s( 9) = (  0.5000000  0.8660254  0.0000000 )    f =(  0.7500000 )
                  ( -0.8660254  0.5000000  0.0000000 )       ( -0.4330127 )
                  (  0.0000000  0.0000000 -1.0000000 )       (  0.0000000 )


      isym = 10     inv. 120 deg rotation - cryst. axis [0,0,-1] 

 cryst.   s(10) = (     1          1          0      )    f =(  0.0000000 )
                  (    -1          0          0      )       (  0.5000000 )
                  (     0          0         -1      )       (  0.0000000 )

 cart.    s(10) = (  0.5000000 -0.8660254  0.0000000 )    f =( -0.2500000 )
                  (  0.8660254  0.5000000  0.0000000 )       (  0.4330127 )
                  (  0.0000000  0.0000000 -1.0000000 )       (  0.0000000 )


      isym = 11     inv. 180 deg rotation - cryst. axis [0,1,0]  

 cryst.   s(11) = (     1          1          0      )    f =(  0.0000000 )
                  (     0         -1          0      )       ( -0.5000000 )
                  (     0          0          1      )       (  0.0000000 )

 cart.    s(11) = (  0.5000000  0.8660254  0.0000000 )    f =(  0.2500000 )
                  (  0.8660254 -0.5000000  0.0000000 )       ( -0.4330127 )
                  (  0.0000000  0.0000000  1.0000000 )       (  0.0000000 )


      isym = 12     inv. 180 deg rotation - cryst. axis [1,1,0]  

 cryst.   s(12) = (     0         -1          0      )    f =( -0.5000000 )
                  (    -1          0          0      )       ( -0.5000000 )
                  (     0          0          1      )       (  0.0000000 )

 cart.    s(12) = (  0.5000000 -0.8660254  0.0000000 )    f =( -0.2500000 )
                  ( -0.8660254 -0.5000000  0.0000000 )       ( -0.4330127 )
                  (  0.0000000  0.0000000  1.0000000 )       (  0.0000000 )


     point group D_3d (-3m) 
     there are  6 classes
     the character table:

       E     2C3   3C2'  i     2S6   3s_d 
A_1g   1.00  1.00  1.00  1.00  1.00  1.00
A_2g   1.00  1.00 -1.00  1.00  1.00 -1.00
E_g    2.00 -1.00  0.00  2.00 -1.00  0.00
A_1u   1.00  1.00  1.00 -1.00 -1.00 -1.00
A_2u   1.00  1.00 -1.00 -1.00 -1.00  1.00
E_u    2.00 -1.00  0.00 -2.00  1.00  0.00

     the symmetry operations in each class and the name of the first element:

     E        1
          identity                                               
     2C3      3    4
          120 deg rotation - cryst. axis [0,0,1]                 
     3C2'     2    5    6
          180 deg rotation - cart. axis [1,0,0]                  
     i        7
          inversion                                              
     2S6      9   10
          inv. 120 deg rotation - cryst. axis [0,0,1]            
     3s_d     8   11   12
          inv. 180 deg rotation - cart. axis [1,0,0]             

   Cartesian axes

     site n.     atom                  positions (alat units)
         1           C   tau(   1) = (   0.5000000   0.5773503  -0.0938425  )
         2           C   tau(   2) = (  -0.0000000   0.2886751   0.0938425  )
         3           F   tau(   3) = (   0.5000000   0.5773503  -0.6234719  )
         4           F   tau(   4) = (  -0.0000000   0.2886751   0.6234719  )

   Crystallographic axes

     site n.     atom                  positions (cryst. coord.)
         1           C   tau(   1) = (  0.8333333  0.6666667 -0.0132153  )
         2           C   tau(   2) = (  0.1666667  0.3333333  0.0132153  )
         3           F   tau(   3) = (  0.8333333  0.6666667 -0.0877999  )
         4           F   tau(   4) = (  0.1666667  0.3333333  0.0877999  )

     number of k points=    12  Marzari-Vanderbilt smearing, width (Ry)=  0.0010
                       cart. coord. in units 2pi/alat
        k(    1) = (   0.0000000   0.0000000   0.0000000), wk =   0.0246914
        k(    2) = (   0.0000000   0.1283001   0.0000000), wk =   0.1481481
        k(    3) = (   0.0000000   0.2566001   0.0000000), wk =   0.1481481
        k(    4) = (   0.0000000   0.3849002   0.0000000), wk =   0.1481481
        k(    5) = (   0.0000000   0.5132002   0.0000000), wk =   0.1481481
        k(    6) = (   0.1111111   0.1924501   0.0000000), wk =   0.1481481
        k(    7) = (   0.1111111   0.3207501   0.0000000), wk =   0.2962963
        k(    8) = (   0.1111111   0.4490502   0.0000000), wk =   0.2962963
        k(    9) = (   0.1111111   0.5773503   0.0000000), wk =   0.1481481
        k(   10) = (   0.2222222   0.3849002   0.0000000), wk =   0.1481481
        k(   11) = (   0.2222222   0.5132002   0.0000000), wk =   0.2962963
        k(   12) = (   0.3333333   0.5773503   0.0000000), wk =   0.0493827

                       cryst. coord.
        k(    1) = (   0.0000000   0.0000000   0.0000000), wk =   0.0246914
        k(    2) = (   0.0000000   0.1111111   0.0000000), wk =   0.1481481
        k(    3) = (   0.0000000   0.2222222   0.0000000), wk =   0.1481481
        k(    4) = (   0.0000000   0.3333333   0.0000000), wk =   0.1481481
        k(    5) = (   0.0000000   0.4444444   0.0000000), wk =   0.1481481
        k(    6) = (   0.1111111   0.1111111   0.0000000), wk =   0.1481481
        k(    7) = (   0.1111111   0.2222222   0.0000000), wk =   0.2962963
        k(    8) = (   0.1111111   0.3333333   0.0000000), wk =   0.2962963
        k(    9) = (   0.1111111   0.4444444   0.0000000), wk =   0.1481481
        k(   10) = (   0.2222222   0.2222222   0.0000000), wk =   0.1481481
        k(   11) = (   0.2222222   0.3333333   0.0000000), wk =   0.2962963
        k(   12) = (   0.3333333   0.3333333   0.0000000), wk =   0.0493827

     Dense  grid:  1108055 G-vectors     FFT dimensions: (  72,  72, 500)

     Dynamical RAM for                 wfc:       7.93 MB

     Dynamical RAM for     wfc (w. buffer):      23.78 MB

     Dynamical RAM for           str. fact:       8.45 MB

     Dynamical RAM for           local pot:       0.00 MB

     Dynamical RAM for          nlocal pot:      16.91 MB

     Dynamical RAM for                qrad:       2.05 MB

     Dynamical RAM for          rho,v,vnew:      27.51 MB

     Dynamical RAM for               rhoin:       9.17 MB

     Dynamical RAM for            rho*nmix:      67.63 MB

     Dynamical RAM for           G-vectors:      17.96 MB

     Dynamical RAM for          h,s,v(r/c):       0.04 MB

     Dynamical RAM for          <psi|beta>:       0.01 MB

     Dynamical RAM for                 psi:      15.86 MB

     Dynamical RAM for                hpsi:      15.86 MB

     Dynamical RAM for                spsi:      15.86 MB

     Dynamical RAM for      wfcinit/wfcrot:      16.92 MB

     Dynamical RAM for           addusdens:      35.22 MB

     Dynamical RAM for          addusforce:      35.23 MB

     Dynamical RAM for         addusstress:      36.99 MB

     Estimated static dynamical RAM per process >     143.25 MB

     Estimated max dynamical RAM per process >     258.50 MB

     Estimated total dynamical RAM >       4.74 GB

     Initial potential from superposition of free atoms

     starting charge      21.9999, renormalised to      22.0000

     negative rho (up, down):  1.607E-03 0.000E+00
     Starting wfcs are   16 randomized atomic wfcs

     total cpu time spent up to now is        7.9 secs

     Self-consistent Calculation

     iteration #  1     ecut=   500.00 Ry     beta= 0.70
     Davidson diagonalization with overlap

---- Real-time Memory Report at c_bands before calling an iterative solver
           200 MiB given to the printing process from OS
             0 MiB allocation reported by mallinfo(arena+hblkhd)
        247346 MiB available memory on the node where the printing process lives
------------------
     ethr =  1.00E-02,  avg # of iterations =  4.2

     Threshold (ethr) on eigenvalues was too large:
     Diagonalizing with lowered threshold

     Davidson diagonalization with overlap

---- Real-time Memory Report at c_bands before calling an iterative solver
           234 MiB given to the printing process from OS
             0 MiB allocation reported by mallinfo(arena+hblkhd)
        246219 MiB available memory on the node where the printing process lives
------------------
     ethr =  9.43E-04,  avg # of iterations =  1.4

     negative rho (up, down):  4.595E-04 0.000E+00

     total cpu time spent up to now is       43.3 secs

     total energy              =    -120.08896090 Ry
     estimated scf accuracy    <       0.20525604 Ry

     iteration #  2     ecut=   500.00 Ry     beta= 0.70
     Davidson diagonalization with overlap

---- Real-time Memory Report at c_bands before calling an iterative solver
           294 MiB given to the printing process from OS
             0 MiB allocation reported by mallinfo(arena+hblkhd)
        245989 MiB available memory on the node where the printing process lives
------------------
     ethr =  9.33E-04,  avg # of iterations =  2.1

     negative rho (up, down):  2.541E-04 0.000E+00

     total cpu time spent up to now is       60.4 secs

     total energy              =    -120.10208765 Ry
     estimated scf accuracy    <       0.10678353 Ry

     iteration #  3     ecut=   500.00 Ry     beta= 0.70
     Davidson diagonalization with overlap

---- Real-time Memory Report at c_bands before calling an iterative solver
           304 MiB given to the printing process from OS
             0 MiB allocation reported by mallinfo(arena+hblkhd)
        245950 MiB available memory on the node where the printing process lives
------------------
     ethr =  4.85E-04,  avg # of iterations =  3.2

     negative rho (up, down):  5.524E-05 0.000E+00

     total cpu time spent up to now is       81.2 secs

     total energy              =    -120.13180215 Ry
     estimated scf accuracy    <       0.01482868 Ry

     iteration #  4     ecut=   500.00 Ry     beta= 0.70
     Davidson diagonalization with overlap

---- Real-time Memory Report at c_bands before calling an iterative solver
           312 MiB given to the printing process from OS
             0 MiB allocation reported by mallinfo(arena+hblkhd)
        246939 MiB available memory on the node where the printing process lives
------------------
     ethr =  6.74E-05,  avg # of iterations =  4.8

     negative rho (up, down):  9.690E-06 0.000E+00

     total cpu time spent up to now is      107.7 secs

     total energy              =    -120.13425999 Ry
     estimated scf accuracy    <       0.00012765 Ry

     iteration #  5     ecut=   500.00 Ry     beta= 0.70
     Davidson diagonalization with overlap

---- Real-time Memory Report at c_bands before calling an iterative solver
           321 MiB given to the printing process from OS
             0 MiB allocation reported by mallinfo(arena+hblkhd)
        246221 MiB available memory on the node where the printing process lives
------------------
     ethr =  5.80E-07,  avg # of iterations =  7.3

     negative rho (up, down):  5.493E-06 0.000E+00

     total cpu time spent up to now is      142.3 secs

     total energy              =    -120.13430031 Ry
     estimated scf accuracy    <       0.00000627 Ry

     iteration #  6     ecut=   500.00 Ry     beta= 0.70
     Davidson diagonalization with overlap

---- Real-time Memory Report at c_bands before calling an iterative solver
           329 MiB given to the printing process from OS
             0 MiB allocation reported by mallinfo(arena+hblkhd)
        246205 MiB available memory on the node where the printing process lives
------------------
     ethr =  2.85E-08,  avg # of iterations =  2.1

     negative rho (up, down):  5.448E-06 0.000E+00

     total cpu time spent up to now is      157.6 secs

     total energy              =    -120.13430119 Ry
     estimated scf accuracy    <       0.00000028 Ry

     iteration #  7     ecut=   500.00 Ry     beta= 0.70
     Davidson diagonalization with overlap

---- Real-time Memory Report at c_bands before calling an iterative solver
           338 MiB given to the printing process from OS
             0 MiB allocation reported by mallinfo(arena+hblkhd)
        246188 MiB available memory on the node where the printing process lives
------------------
     ethr =  1.26E-09,  avg # of iterations =  2.4

     negative rho (up, down):  5.452E-06 0.000E+00

     total cpu time spent up to now is      175.1 secs

     total energy              =    -120.13430128 Ry
     estimated scf accuracy    <       0.00000005 Ry

     iteration #  8     ecut=   500.00 Ry     beta= 0.70
     Davidson diagonalization with overlap

---- Real-time Memory Report at c_bands before calling an iterative solver
           346 MiB given to the printing process from OS
             0 MiB allocation reported by mallinfo(arena+hblkhd)
        246173 MiB available memory on the node where the printing process lives
------------------
     ethr =  2.38E-10,  avg # of iterations =  2.0

     negative rho (up, down):  5.456E-06 0.000E+00

     total cpu time spent up to now is      189.8 secs

     total energy              =    -120.13430129 Ry
     estimated scf accuracy    <          8.8E-11 Ry

     iteration #  9     ecut=   500.00 Ry     beta= 0.70
     Davidson diagonalization with overlap

---- Real-time Memory Report at c_bands before calling an iterative solver
           355 MiB given to the printing process from OS
             0 MiB allocation reported by mallinfo(arena+hblkhd)
        246501 MiB available memory on the node where the printing process lives
------------------
     ethr =  3.99E-13,  avg # of iterations =  4.4

     negative rho (up, down):  5.456E-06 0.000E+00

     total cpu time spent up to now is      213.9 secs

     total energy              =    -120.13430129 Ry
     estimated scf accuracy    <          4.3E-11 Ry

     iteration # 10     ecut=   500.00 Ry     beta= 0.70
     Davidson diagonalization with overlap

---- Real-time Memory Report at c_bands before calling an iterative solver
           363 MiB given to the printing process from OS
             0 MiB allocation reported by mallinfo(arena+hblkhd)
        245760 MiB available memory on the node where the printing process lives
------------------
     ethr =  1.97E-13,  avg # of iterations =  2.0

     negative rho (up, down):  5.457E-06 0.000E+00

     total cpu time spent up to now is      228.5 secs

     total energy              =    -120.13430129 Ry
     estimated scf accuracy    <          1.2E-12 Ry

     iteration # 11     ecut=   500.00 Ry     beta= 0.70
     Davidson diagonalization with overlap

---- Real-time Memory Report at c_bands before calling an iterative solver
           363 MiB given to the printing process from OS
             0 MiB allocation reported by mallinfo(arena+hblkhd)
        246065 MiB available memory on the node where the printing process lives
------------------
     ethr =  1.00E-13,  avg # of iterations =  1.0

     negative rho (up, down):  5.457E-06 0.000E+00

     total cpu time spent up to now is      240.5 secs

     End of self-consistent calculation

          k = 0.0000 0.0000 0.0000 (138795 PWs)   bands (ev):

   -29.3985 -28.9031 -20.1857 -12.8245  -9.8438  -8.1001  -8.1001  -6.9236
    -6.9236  -3.9525  -3.9525  -0.8095   3.4077   3.4077   3.5907

     occupation numbers 
     1.0000   1.0000   1.0000   1.0000   1.0000   1.0000   1.0000   1.0000
     1.0000   1.0000   1.0000   0.0000   0.0000   0.0000   0.0000

          k = 0.0000 0.1283 0.0000 (138715 PWs)   bands (ev):

   -29.2926 -28.8275 -19.9961 -12.7260  -9.9400  -8.8929  -8.3614  -7.1348
    -6.9687  -4.6904  -4.2199  -0.2266   3.4863   3.9607   4.1902

     occupation numbers 
     1.0000   1.0000   1.0000   1.0000   1.0000   1.0000   1.0000   1.0000
     1.0000   1.0000   1.0000   0.0000   0.0000   0.0000   0.0000

          k = 0.0000 0.2566 0.0000 (138628 PWs)   bands (ev):

   -29.0121 -28.6326 -19.4293 -12.5185 -10.8356 -10.0618  -8.9685  -7.6280
    -7.1005  -6.0281  -4.7099   0.6384   3.7086   4.9612   5.3949

     occupation numbers 
     1.0000   1.0000   1.0000   1.0000   1.0000   1.0000   1.0000   1.0000
     1.0000   1.0000   1.0000   0.0000   0.0000   0.0000   0.0000

          k = 0.0000 0.3849 0.0000 (138514 PWs)   bands (ev):

   -28.6650 -28.4084 -18.4908 -13.3489 -11.8018 -10.4614  -9.5838  -8.1021
    -7.2623  -7.1934  -5.1008   1.1699   4.1206   5.8527   7.0496

     occupation numbers 
     1.0000   1.0000   1.0000   1.0000   1.0000   1.0000   1.0000   1.0000
     1.0000   1.0000   1.0000   0.0000   0.0000   0.0000   0.0000

          k = 0.0000 0.5132 0.0000 (138448 PWs)   bands (ev):

   -28.4078 -28.2727 -17.2270 -15.2442 -11.6320 -10.7456  -9.9503  -8.3910
    -7.8384  -7.3699  -5.3059   1.4269   4.5374   5.1404   8.6071

     occupation numbers 
     1.0000   1.0000   1.0000   1.0000   1.0000   1.0000   1.0000   1.0000
     1.0000   1.0000   1.0000   0.0000   0.0000   0.0000   0.0000

          k = 0.1111 0.1925 0.0000 (138689 PWs)   bands (ev):

   -29.0992 -28.6921 -19.6177 -12.5646 -10.1656 -10.0506  -8.9112  -7.3707
    -7.1927  -5.5366  -4.7473   0.5664   3.9647   4.6659   4.7189

     occupation numbers 
     1.0000   1.0000   1.0000   1.0000   1.0000   1.0000   1.0000   1.0000
     1.0000   1.0000   1.0000   0.0000   0.0000   0.0000   0.0000

          k = 0.1111 0.3208 0.0000 (138626 PWs)   bands (ev):

   -28.7840 -28.4811 -18.8635 -12.6226 -11.5417 -10.5485  -9.6322  -7.8418
    -7.4907  -6.5322  -5.3033   1.4969   4.4685   5.8059   6.2554

     occupation numbers 
     1.0000   1.0000   1.0000   1.0000   1.0000   1.0000   1.0000   1.0000
     1.0000   1.0000   1.0000   0.0000   0.0000   0.0000   0.0000

          k = 0.1111 0.4491 0.0000 (138517 PWs)   bands (ev):

   -28.4777 -28.2999 -17.7453 -14.2268 -11.6904 -10.8169 -10.2341  -8.3224
    -7.7184  -7.2438  -5.6130   2.1653   4.7790   5.6221   7.8901

     occupation numbers 
     1.0000   1.0000   1.0000   1.0000   1.0000   1.0000   1.0000   1.0000
     1.0000   1.0000   1.0000   0.0000   0.0000   0.0000   0.0000

          k = 0.1111 0.5774 0.0000 (138394 PWs)   bands (ev):

   -28.3379 -28.2401 -16.6267 -15.6605 -11.6362 -10.7692 -10.5839  -8.5101
    -7.8369  -7.4648  -5.7136   2.4681   4.9991   4.9992   8.2559

     occupation numbers 
     1.0000   1.0000   1.0000   1.0000   1.0000   1.0000   1.0000   1.0000
     1.0000   1.0000   1.0000   0.0000   0.0000   0.0000   0.0000

          k = 0.2222 0.3849 0.0000 (138485 PWs)   bands (ev):

   -28.5067 -28.3110 -17.9232 -13.4674 -11.6277 -11.4808 -10.2565  -8.2761
    -7.8155  -6.9060  -6.0346   2.7385   5.8161   6.5549   6.6808

     occupation numbers 
     1.0000   1.0000   1.0000   1.0000   1.0000   1.0000   1.0000   1.0000
     1.0000   1.0000   1.0000   0.0000   0.0000   0.0000   0.0000

          k = 0.2222 0.5132 0.0000 (138504 PWs)   bands (ev):

   -28.3019 -28.2141 -16.6670 -14.8636 -12.3407 -11.1700 -10.6672  -8.6645
    -7.7347  -7.3812  -6.3915   3.7614   5.3451   6.4866   7.4512

     occupation numbers 
     1.0000   1.0000   1.0000   1.0000   1.0000   1.0000   1.0000   1.0000
     1.0000   1.0000   1.0000   0.0000   0.0000   0.0000   0.0000

          k = 0.3333 0.5774 0.0000 (138474 PWs)   bands (ev):

   -28.2062 -28.2062 -15.5317 -15.5317 -13.1902 -10.9167 -10.9167  -8.8366
    -7.5008  -7.5008  -6.8612   4.8191   4.8191   7.0249   8.4895

     occupation numbers 
     1.0000   1.0000   1.0000   1.0000   1.0000   1.0000   1.0000   1.0000
     1.0000   1.0000   1.0000   0.0000   0.0000   0.0000   0.0000

     the Fermi energy is    -3.2186 ev

!    total energy              =    -120.13430129 Ry
     estimated scf accuracy    <          1.6E-13 Ry
     smearing contrib. (-TS)   =       0.00000000 Ry
     internal energy E=F+TS    =    -120.13430129 Ry

     The total energy is F=E-TS. E is the sum of the following terms:
     one-electron contribution =    -975.03797553 Ry
     hartree contribution      =     493.28026743 Ry
     xc contribution           =     -25.85815804 Ry
     ewald contribution        =     387.48156485 Ry

     convergence has been achieved in  11 iterations

     negative rho (up, down):  5.457E-06 0.000E+00

     Forces acting on atoms (cartesian axes, Ry/au):

     atom    1 type  1   force =     0.00000000    0.00000000   -0.00001202
     atom    2 type  1   force =     0.00000000    0.00000000    0.00001202
     atom    3 type  2   force =     0.00000000    0.00000000    0.00001763
     atom    4 type  2   force =    -0.00000000   -0.00000000   -0.00001763
     The non-local contrib.  to forces
     atom    1 type  1   force =     0.00000000    0.00000000   -0.39798757
     atom    2 type  1   force =    -0.00000000   -0.00000000    0.39798757
     atom    3 type  2   force =     0.00000000    0.00000000    2.50707591
     atom    4 type  2   force =     0.00000000    0.00000000   -2.50707591
     The ionic contribution  to forces
     atom    1 type  1   force =    -0.00000001    0.00000000   -1.16446704
     atom    2 type  1   force =     0.00000001   -0.00000000    1.16446704
     atom    3 type  2   force =    -0.00000000    0.00000000  -48.73456709
     atom    4 type  2   force =     0.00000000   -0.00000000   48.73456709
     The local contribution  to forces
     atom    1 type  1   force =    -0.00000000    0.00000001    1.55927424
     atom    2 type  1   force =     0.00000001   -0.00000000   -1.55927423
     atom    3 type  2   force =    -0.00000000    0.00000007   46.22750763
     atom    4 type  2   force =     0.00000016   -0.00000003  -46.22750765
     The core correction contribution to forces
     atom    1 type  1   force =    -0.00000000   -0.00000000    0.00316815
     atom    2 type  1   force =    -0.00000000    0.00000000   -0.00316815
     atom    3 type  2   force =     0.00000000    0.00000000    0.00000000
     atom    4 type  2   force =     0.00000000    0.00000000    0.00000000
     The Hubbard contrib.    to forces
     atom    1 type  1   force =     0.00000000    0.00000000    0.00000000
     atom    2 type  1   force =     0.00000000    0.00000000    0.00000000
     atom    3 type  2   force =     0.00000000    0.00000000    0.00000000
     atom    4 type  2   force =     0.00000000    0.00000000    0.00000000
     The SCF correction term to forces
     atom    1 type  1   force =    -0.00000000    0.00000000    0.00000020
     atom    2 type  1   force =    -0.00000000    0.00000000   -0.00000020
     atom    3 type  2   force =    -0.00000000   -0.00000000    0.00000116
     atom    4 type  2   force =    -0.00000000    0.00000000   -0.00000116

     Total force =     0.000030     Total SCF correction =     0.000002


     Computing stress (Cartesian axis) and pressure


     negative rho (up, down):  5.457E-06 0.000E+00
          total   stress  (Ry/bohr**3)                   (kbar)     P=        0.01
   0.00000019   0.00000000  -0.00000000            0.03        0.00       -0.00
   0.00000000   0.00000019  -0.00000000            0.00        0.03       -0.00
  -0.00000000  -0.00000000  -0.00000027           -0.00       -0.00       -0.04

     kinetic stress (kbar)   6755.22     -0.00      0.00
                               -0.00   6755.22      0.00
                                0.00      0.00   6004.39

     local   stress (kbar)-188511.08      0.00     -0.00
                                0.00-188511.08      0.00
                               -0.00      0.00 183434.31

     nonloc. stress (kbar)    872.00      0.00      0.00
                                0.00    872.00      0.00
                                0.00      0.00    676.69

     hartree stress (kbar)  94218.05     -0.00      0.00
                               -0.00  94218.05     -0.00
                                0.00     -0.00 -89555.24

     exc-cor stress (kbar)  -1583.06     -0.00      0.00
                               -0.00  -1583.06     -0.00
                                0.00     -0.00  -1572.81

     corecor stress (kbar)    -54.53      0.00     -0.00
                                0.00    -54.53      0.00
                               -0.00      0.00    -53.43

     ewald   stress (kbar)  88303.43     -0.00      0.00
                               -0.00  88303.43     -0.00
                                0.00     -0.00 -98933.96

     hubbard stress (kbar)      0.00      0.00      0.00
                                0.00      0.00      0.00
                                0.00      0.00      0.00

     DFT-D   stress (kbar)      0.00      0.00      0.00
                                0.00      0.00      0.00
                                0.00      0.00      0.00

     XDM     stress (kbar)      0.00      0.00      0.00
                                0.00      0.00      0.00
                                0.00      0.00      0.00

     dft-nl  stress (kbar)      0.00      0.00      0.00
                                0.00      0.00      0.00
                                0.00      0.00      0.00

     TS-vdW  stress (kbar)      0.00      0.00      0.00
                                0.00      0.00      0.00
                                0.00      0.00      0.00

     MDB     stress (kbar)      0.00      0.00      0.00
                                0.00      0.00      0.00
                                0.00      0.00      0.00

     3D-RISM stress (kbar)      0.00      0.00      0.00
                                0.00      0.00      0.00
                                0.00      0.00      0.00


     Writing all to output data dir ../tmp/fgc.save/

     init_run     :      4.23s CPU      6.16s WALL (       1 calls)
     electrons    :    136.50s CPU    232.86s WALL (       1 calls)
     forces       :      2.37s CPU      4.46s WALL (       1 calls)
     stress       :      3.74s CPU      7.45s WALL (       1 calls)

     Called by init_run:
     wfcinit      :      1.96s CPU      3.27s WALL (       1 calls)
     wfcinit:atom :      0.02s CPU      0.03s WALL (       2 calls)
     wfcinit:wfcr :      1.86s CPU      3.10s WALL (       2 calls)
     potinit      :      0.85s CPU      0.92s WALL (       1 calls)
     hinit0       :      0.85s CPU      0.89s WALL (       1 calls)

     Called by electrons:
     c_bands      :    113.36s CPU    195.31s WALL (      12 calls)
     sum_band     :     13.50s CPU     23.56s WALL (      12 calls)
     v_of_rho     :      4.26s CPU      4.55s WALL (      12 calls)
     v_h          :      0.35s CPU      0.38s WALL (      12 calls)
     v_xc         :      4.48s CPU      4.85s WALL (      14 calls)
     newd         :      4.29s CPU      8.27s WALL (      12 calls)
     mix_rho      :      0.73s CPU      0.94s WALL (      12 calls)

     Called by c_bands:
     init_us_2    :      0.44s CPU      0.72s WALL (      54 calls)
     init_us_2:cp :      0.44s CPU      0.72s WALL (      54 calls)
     cegterg      :     87.72s CPU    150.57s WALL (      24 calls)

     Called by sum_band:
     sum_band:wei :      0.20s CPU      0.21s WALL (      12 calls)
     sum_band:loo :      7.94s CPU     13.69s WALL (      12 calls)
     sum_band:buf :      0.05s CPU      0.06s WALL (      24 calls)
     sum_band:ini :      0.22s CPU      0.27s WALL (      24 calls)
     sum_band:cal :      2.39s CPU      6.63s WALL (      24 calls)
     sum_band:bec :      0.00s CPU      0.00s WALL (      24 calls)
     addusdens    :      1.85s CPU      5.19s WALL (      12 calls)
     addusd:skk   :      0.01s CPU      0.01s WALL (      24 calls)
     addusd:dgemm :      0.63s CPU      2.45s WALL (      24 calls)
     addusd:qvan2 :      0.73s CPU      2.02s WALL (      24 calls)

     Called by *egterg:
     cdiaghg      :      6.11s CPU     11.71s WALL (     106 calls)
     cegterg:over :     16.16s CPU     22.50s WALL (      84 calls)
     cegterg:upda :      1.78s CPU      3.89s WALL (      84 calls)
     cegterg:last :      2.42s CPU      3.58s WALL (      52 calls)
     h_psi        :     50.30s CPU     88.61s WALL (     110 calls)
     s_psi        :      1.16s CPU      1.93s WALL (     110 calls)
     g_psi        :      0.08s CPU      0.07s WALL (      84 calls)

     Called by h_psi:
     h_psi:calbec :     12.60s CPU     25.13s WALL (     110 calls)
     vloc_psi     :     34.77s CPU     56.93s WALL (     110 calls)
     add_vuspsi   :      2.82s CPU      6.43s WALL (     110 calls)

     General routines
     calbec       :     16.29s CPU     34.99s WALL (     144 calls)
     fft          :      3.31s CPU      3.66s WALL (     158 calls)
     ffts         :      0.60s CPU      0.63s WALL (      12 calls)
     fftw         :     35.48s CPU     57.91s WALL (    2310 calls)

     Parallel routines

     PWSCF        :   2m28.36s CPU   4m13.57s WALL


   This run was terminated on:  16:31:23  24Feb2024            

=------------------------------------------------------------------------------=
   JOB DONE.
=------------------------------------------------------------------------------=
