
     Program PWSCF v.7.1 starts on 24Feb2024 at  5:46:20 

     This program is part of the open-source Quantum ESPRESSO suite
     for quantum simulation of materials; please cite
         "P. Giannozzi et al., J. Phys.:Condens. Matter 21 395502 (2009);
         "P. Giannozzi et al., J. Phys.:Condens. Matter 29 465901 (2017);
         "P. Giannozzi et al., J. Chem. Phys. 152 154105 (2020);
          URL http://www.quantum-espresso.org", 
     in publications or presentations arising from this work. More details at
     http://www.quantum-espresso.org/quote

     Parallel version (MPI), running on    24 processors

     MPI processes distributed on     1 nodes
     252263 MiB available memory on the printing compute node when the environment starts

     Reading input from kpoint.21.in

     Current dimensions of program PWSCF are:
     Max number of different atomic species (ntypx) = 10
     Max number of k-points (npk) =  40000
     Max angular momentum in pseudopotentials (lmaxx) =  4

     K-points division:     npool     =       6
     R & G space division:  proc/nbgrp/npool/nimage =       4
     Subspace diagonalization in iterative solution of the eigenvalue problem:
     a serial algorithm will be used


     Parallelization info
     --------------------
     sticks:   dense  smooth     PW     G-vecs:    dense   smooth      PW
     Min         832     832    228               276984   276984   38734
     Max         833     833    229               277001   277001   38747
     Sum        3331    3331    913              1107983  1107983  154963

     Using Slab Decomposition



     bravais-lattice index     =            4
     lattice parameter (alat)  =       4.9229  a.u.
     unit-cell volume          =     733.7343 (a.u.)^3
     number of atoms/cell      =            4
     number of atomic types    =            2
     number of electrons       =        22.00
     number of Kohn-Sham states=           15
     kinetic-energy cutoff     =     500.0000  Ry
     charge density cutoff     =    2000.0000  Ry
     scf convergence threshold =      1.0E-12
     mixing beta               =       0.7000
     number of iterations used =            8  plain     mixing
     Exchange-correlation=  SLA  PW   PBX  PBC
                           (   1   4   3   4   0   0   0)

     celldm(1)=   4.922852  celldm(2)=   0.000000  celldm(3)=   7.101627
     celldm(4)=   0.000000  celldm(5)=   0.000000  celldm(6)=   0.000000

     crystal axes: (cart. coord. in units of alat)
               a(1) = (   1.000000   0.000000   0.000000 )  
               a(2) = (  -0.500000   0.866025   0.000000 )  
               a(3) = (   0.000000   0.000000   7.101627 )  

     reciprocal axes: (cart. coord. in units 2 pi/alat)
               b(1) = (  1.000000  0.577350 -0.000000 )  
               b(2) = (  0.000000  1.154701  0.000000 )  
               b(3) = (  0.000000 -0.000000  0.140813 )  


     PseudoPot. # 1 for C  read from file:
     ../pseudo/c_pbe_v1.2.uspp.F.UPF
     MD5 check sum: d1aef80898a10debaa0f26306b886e00
     Pseudo is Ultrasoft + core correction, Zval =  4.0
     Generated by new atomic code, or converted to UPF format
     Using radial grid of  721 points,  4 beta functions with: 
                l(1) =   0
                l(2) =   0
                l(3) =   1
                l(4) =   1
     Q(r) pseudized with  8 coefficients,  rinner =    1.100   1.100   1.100


     PseudoPot. # 2 for F  read from file:
     ../pseudo/f_pbe_v1.4.uspp.F.UPF
     MD5 check sum: 4c38b6a325caf53ec0e86aed9459de46
     Pseudo is Ultrasoft, Zval =  7.0
     Generated by new atomic code, or converted to UPF format
     Using radial grid of  799 points,  4 beta functions with: 
                l(1) =   0
                l(2) =   0
                l(3) =   1
                l(4) =   1
     Q(r) pseudized with  8 coefficients,  rinner =    0.950   0.950   0.950


     atomic species   valence    mass     pseudopotential
        C              4.00    12.01070     C ( 1.00)
        F              7.00    18.99840     F ( 1.00)

     12 Sym. Ops., with inversion, found ( 8 have fractional translation)


                                    s                        frac. trans.

      isym =  1     identity                                     

 cryst.   s( 1) = (     1          0          0      )
                  (     0          1          0      )
                  (     0          0          1      )

 cart.    s( 1) = (  1.0000000  0.0000000  0.0000000 )
                  (  0.0000000  1.0000000  0.0000000 )
                  (  0.0000000  0.0000000  1.0000000 )


      isym =  2     180 deg rotation - cart. axis [1,0,0]        

 cryst.   s( 2) = (     1          0          0      )
                  (    -1         -1          0      )
                  (     0          0         -1      )

 cart.    s( 2) = (  1.0000000  0.0000000  0.0000000 )
                  (  0.0000000 -1.0000000  0.0000000 )
                  (  0.0000000  0.0000000 -1.0000000 )


      isym =  3     120 deg rotation - cryst. axis [0,0,1]       

 cryst.   s( 3) = (     0          1          0      )    f =( -0.5000000 )
                  (    -1         -1          0      )       ( -0.5000000 )
                  (     0          0          1      )       (  0.0000000 )

 cart.    s( 3) = ( -0.5000000 -0.8660254  0.0000000 )    f =( -0.2500000 )
                  (  0.8660254 -0.5000000  0.0000000 )       ( -0.4330127 )
                  (  0.0000000  0.0000000  1.0000000 )       (  0.0000000 )


      isym =  4     120 deg rotation - cryst. axis [0,0,-1]      

 cryst.   s( 4) = (    -1         -1          0      )    f =(  0.0000000 )
                  (     1          0          0      )       ( -0.5000000 )
                  (     0          0          1      )       (  0.0000000 )

 cart.    s( 4) = ( -0.5000000  0.8660254  0.0000000 )    f =(  0.2500000 )
                  ( -0.8660254 -0.5000000  0.0000000 )       ( -0.4330127 )
                  (  0.0000000  0.0000000  1.0000000 )       (  0.0000000 )


      isym =  5     180 deg rotation - cryst. axis [0,1,0]       

 cryst.   s( 5) = (    -1         -1          0      )    f =(  0.0000000 )
                  (     0          1          0      )       ( -0.5000000 )
                  (     0          0         -1      )       (  0.0000000 )

 cart.    s( 5) = ( -0.5000000 -0.8660254  0.0000000 )    f =(  0.2500000 )
                  ( -0.8660254  0.5000000  0.0000000 )       ( -0.4330127 )
                  (  0.0000000  0.0000000 -1.0000000 )       (  0.0000000 )


      isym =  6     180 deg rotation - cryst. axis [1,1,0]       

 cryst.   s( 6) = (     0          1          0      )    f =(  0.5000000 )
                  (     1          0          0      )       (  0.5000000 )
                  (     0          0         -1      )       (  0.0000000 )

 cart.    s( 6) = ( -0.5000000  0.8660254  0.0000000 )    f =(  0.2500000 )
                  (  0.8660254  0.5000000  0.0000000 )       (  0.4330127 )
                  (  0.0000000  0.0000000 -1.0000000 )       (  0.0000000 )


      isym =  7     inversion                                    

 cryst.   s( 7) = (    -1          0          0      )
                  (     0         -1          0      )
                  (     0          0         -1      )

 cart.    s( 7) = ( -1.0000000  0.0000000  0.0000000 )
                  (  0.0000000 -1.0000000  0.0000000 )
                  (  0.0000000  0.0000000 -1.0000000 )


      isym =  8     inv. 180 deg rotation - cart. axis [1,0,0]   

 cryst.   s( 8) = (    -1          0          0      )
                  (     1          1          0      )
                  (     0          0          1      )

 cart.    s( 8) = ( -1.0000000  0.0000000  0.0000000 )
                  (  0.0000000  1.0000000  0.0000000 )
                  (  0.0000000  0.0000000  1.0000000 )


      isym =  9     inv. 120 deg rotation - cryst. axis [0,0,1]  

 cryst.   s( 9) = (     0         -1          0      )    f =(  0.5000000 )
                  (     1          1          0      )       ( -0.5000000 )
                  (     0          0         -1      )       (  0.0000000 )

 cart.    s( 9) = (  0.5000000  0.8660254  0.0000000 )    f =(  0.7500000 )
                  ( -0.8660254  0.5000000  0.0000000 )       ( -0.4330127 )
                  (  0.0000000  0.0000000 -1.0000000 )       (  0.0000000 )


      isym = 10     inv. 120 deg rotation - cryst. axis [0,0,-1] 

 cryst.   s(10) = (     1          1          0      )    f =(  0.0000000 )
                  (    -1          0          0      )       (  0.5000000 )
                  (     0          0         -1      )       (  0.0000000 )

 cart.    s(10) = (  0.5000000 -0.8660254  0.0000000 )    f =( -0.2500000 )
                  (  0.8660254  0.5000000  0.0000000 )       (  0.4330127 )
                  (  0.0000000  0.0000000 -1.0000000 )       (  0.0000000 )


      isym = 11     inv. 180 deg rotation - cryst. axis [0,1,0]  

 cryst.   s(11) = (     1          1          0      )    f =(  0.0000000 )
                  (     0         -1          0      )       ( -0.5000000 )
                  (     0          0          1      )       (  0.0000000 )

 cart.    s(11) = (  0.5000000  0.8660254  0.0000000 )    f =(  0.2500000 )
                  (  0.8660254 -0.5000000  0.0000000 )       ( -0.4330127 )
                  (  0.0000000  0.0000000  1.0000000 )       (  0.0000000 )


      isym = 12     inv. 180 deg rotation - cryst. axis [1,1,0]  

 cryst.   s(12) = (     0         -1          0      )    f =( -0.5000000 )
                  (    -1          0          0      )       ( -0.5000000 )
                  (     0          0          1      )       (  0.0000000 )

 cart.    s(12) = (  0.5000000 -0.8660254  0.0000000 )    f =( -0.2500000 )
                  ( -0.8660254 -0.5000000  0.0000000 )       ( -0.4330127 )
                  (  0.0000000  0.0000000  1.0000000 )       (  0.0000000 )


     point group D_3d (-3m) 
     there are  6 classes
     the character table:

       E     2C3   3C2'  i     2S6   3s_d 
A_1g   1.00  1.00  1.00  1.00  1.00  1.00
A_2g   1.00  1.00 -1.00  1.00  1.00 -1.00
E_g    2.00 -1.00  0.00  2.00 -1.00  0.00
A_1u   1.00  1.00  1.00 -1.00 -1.00 -1.00
A_2u   1.00  1.00 -1.00 -1.00 -1.00  1.00
E_u    2.00 -1.00  0.00 -2.00  1.00  0.00

     the symmetry operations in each class and the name of the first element:

     E        1
          identity                                               
     2C3      3    4
          120 deg rotation - cryst. axis [0,0,1]                 
     3C2'     2    5    6
          180 deg rotation - cart. axis [1,0,0]                  
     i        7
          inversion                                              
     2S6      9   10
          inv. 120 deg rotation - cryst. axis [0,0,1]            
     3s_d     8   11   12
          inv. 180 deg rotation - cart. axis [1,0,0]             

   Cartesian axes

     site n.     atom                  positions (alat units)
         1           C   tau(   1) = (   0.5000000   0.5773503  -0.0938017  )
         2           C   tau(   2) = (  -0.0000000   0.2886751   0.0938017  )
         3           F   tau(   3) = (   0.5000000   0.5773503  -0.6235043  )
         4           F   tau(   4) = (  -0.0000000   0.2886751   0.6235043  )

   Crystallographic axes

     site n.     atom                  positions (cryst. coord.)
         1           C   tau(   1) = (  0.8333333  0.6666667 -0.0132085  )
         2           C   tau(   2) = (  0.1666667  0.3333333  0.0132085  )
         3           F   tau(   3) = (  0.8333333  0.6666667 -0.0877974  )
         4           F   tau(   4) = (  0.1666667  0.3333333  0.0877974  )

     number of k points=    48  Marzari-Vanderbilt smearing, width (Ry)=  0.0010
                       cart. coord. in units 2pi/alat
        k(    1) = (   0.0000000   0.0000000   0.0000000), wk =   0.0045351
        k(    2) = (   0.0000000   0.0549857   0.0000000), wk =   0.0272109
        k(    3) = (   0.0000000   0.1099715   0.0000000), wk =   0.0272109
        k(    4) = (   0.0000000   0.1649572   0.0000000), wk =   0.0272109
        k(    5) = (   0.0000000   0.2199430   0.0000000), wk =   0.0272109
        k(    6) = (   0.0000000   0.2749287   0.0000000), wk =   0.0272109
        k(    7) = (   0.0000000   0.3299144   0.0000000), wk =   0.0272109
        k(    8) = (   0.0000000   0.3849002   0.0000000), wk =   0.0272109
        k(    9) = (   0.0000000   0.4398859   0.0000000), wk =   0.0272109
        k(   10) = (   0.0000000   0.4948717   0.0000000), wk =   0.0272109
        k(   11) = (   0.0000000   0.5498574   0.0000000), wk =   0.0272109
        k(   12) = (   0.0476190   0.0824786   0.0000000), wk =   0.0272109
        k(   13) = (   0.0476190   0.1374643   0.0000000), wk =   0.0544218
        k(   14) = (   0.0476190   0.1924501   0.0000000), wk =   0.0544218
        k(   15) = (   0.0476190   0.2474358   0.0000000), wk =   0.0544218
        k(   16) = (   0.0476190   0.3024216   0.0000000), wk =   0.0544218
        k(   17) = (   0.0476190   0.3574073   0.0000000), wk =   0.0544218
        k(   18) = (   0.0476190   0.4123930   0.0000000), wk =   0.0544218
        k(   19) = (   0.0476190   0.4673788   0.0000000), wk =   0.0544218
        k(   20) = (   0.0476190   0.5223645   0.0000000), wk =   0.0544218
        k(   21) = (   0.0476190   0.5773503   0.0000000), wk =   0.0272109
        k(   22) = (   0.0952381   0.1649572   0.0000000), wk =   0.0272109
        k(   23) = (   0.0952381   0.2199430   0.0000000), wk =   0.0544218
        k(   24) = (   0.0952381   0.2749287   0.0000000), wk =   0.0544218
        k(   25) = (   0.0952381   0.3299144   0.0000000), wk =   0.0544218
        k(   26) = (   0.0952381   0.3849002   0.0000000), wk =   0.0544218
        k(   27) = (   0.0952381   0.4398859   0.0000000), wk =   0.0544218
        k(   28) = (   0.0952381   0.4948717   0.0000000), wk =   0.0544218
        k(   29) = (   0.0952381   0.5498574   0.0000000), wk =   0.0544218
        k(   30) = (   0.1428571   0.2474358   0.0000000), wk =   0.0272109
        k(   31) = (   0.1428571   0.3024216   0.0000000), wk =   0.0544218
        k(   32) = (   0.1428571   0.3574073   0.0000000), wk =   0.0544218
        k(   33) = (   0.1428571   0.4123930   0.0000000), wk =   0.0544218
        k(   34) = (   0.1428571   0.4673788   0.0000000), wk =   0.0544218
        k(   35) = (   0.1428571   0.5223645   0.0000000), wk =   0.0544218
        k(   36) = (   0.1428571   0.5773503   0.0000000), wk =   0.0272109
        k(   37) = (   0.1904762   0.3299144   0.0000000), wk =   0.0272109
        k(   38) = (   0.1904762   0.3849002   0.0000000), wk =   0.0544218
        k(   39) = (   0.1904762   0.4398859   0.0000000), wk =   0.0544218
        k(   40) = (   0.1904762   0.4948717   0.0000000), wk =   0.0544218
        k(   41) = (   0.1904762   0.5498574   0.0000000), wk =   0.0544218
        k(   42) = (   0.2380952   0.4123930   0.0000000), wk =   0.0272109
        k(   43) = (   0.2380952   0.4673788   0.0000000), wk =   0.0544218
        k(   44) = (   0.2380952   0.5223645   0.0000000), wk =   0.0544218
        k(   45) = (   0.2380952   0.5773503   0.0000000), wk =   0.0272109
        k(   46) = (   0.2857143   0.4948717   0.0000000), wk =   0.0272109
        k(   47) = (   0.2857143   0.5498574   0.0000000), wk =   0.0544218
        k(   48) = (   0.3333333   0.5773503   0.0000000), wk =   0.0090703

                       cryst. coord.
        k(    1) = (   0.0000000   0.0000000   0.0000000), wk =   0.0045351
        k(    2) = (   0.0000000   0.0476190   0.0000000), wk =   0.0272109
        k(    3) = (   0.0000000   0.0952381   0.0000000), wk =   0.0272109
        k(    4) = (   0.0000000   0.1428571   0.0000000), wk =   0.0272109
        k(    5) = (   0.0000000   0.1904762   0.0000000), wk =   0.0272109
        k(    6) = (   0.0000000   0.2380952   0.0000000), wk =   0.0272109
        k(    7) = (   0.0000000   0.2857143   0.0000000), wk =   0.0272109
        k(    8) = (   0.0000000   0.3333333   0.0000000), wk =   0.0272109
        k(    9) = (   0.0000000   0.3809524   0.0000000), wk =   0.0272109
        k(   10) = (   0.0000000   0.4285714   0.0000000), wk =   0.0272109
        k(   11) = (   0.0000000   0.4761905   0.0000000), wk =   0.0272109
        k(   12) = (   0.0476190   0.0476190   0.0000000), wk =   0.0272109
        k(   13) = (   0.0476190   0.0952381   0.0000000), wk =   0.0544218
        k(   14) = (   0.0476190   0.1428571   0.0000000), wk =   0.0544218
        k(   15) = (   0.0476190   0.1904762   0.0000000), wk =   0.0544218
        k(   16) = (   0.0476190   0.2380952   0.0000000), wk =   0.0544218
        k(   17) = (   0.0476190   0.2857143   0.0000000), wk =   0.0544218
        k(   18) = (   0.0476190   0.3333333   0.0000000), wk =   0.0544218
        k(   19) = (   0.0476190   0.3809524   0.0000000), wk =   0.0544218
        k(   20) = (   0.0476190   0.4285714   0.0000000), wk =   0.0544218
        k(   21) = (   0.0476190   0.4761905   0.0000000), wk =   0.0272109
        k(   22) = (   0.0952381   0.0952381   0.0000000), wk =   0.0272109
        k(   23) = (   0.0952381   0.1428571   0.0000000), wk =   0.0544218
        k(   24) = (   0.0952381   0.1904762   0.0000000), wk =   0.0544218
        k(   25) = (   0.0952381   0.2380952   0.0000000), wk =   0.0544218
        k(   26) = (   0.0952381   0.2857143   0.0000000), wk =   0.0544218
        k(   27) = (   0.0952381   0.3333333   0.0000000), wk =   0.0544218
        k(   28) = (   0.0952381   0.3809524   0.0000000), wk =   0.0544218
        k(   29) = (   0.0952381   0.4285714   0.0000000), wk =   0.0544218
        k(   30) = (   0.1428571   0.1428571   0.0000000), wk =   0.0272109
        k(   31) = (   0.1428571   0.1904762   0.0000000), wk =   0.0544218
        k(   32) = (   0.1428571   0.2380952   0.0000000), wk =   0.0544218
        k(   33) = (   0.1428571   0.2857143   0.0000000), wk =   0.0544218
        k(   34) = (   0.1428571   0.3333333   0.0000000), wk =   0.0544218
        k(   35) = (   0.1428571   0.3809524   0.0000000), wk =   0.0544218
        k(   36) = (   0.1428571   0.4285714   0.0000000), wk =   0.0272109
        k(   37) = (   0.1904762   0.1904762   0.0000000), wk =   0.0272109
        k(   38) = (   0.1904762   0.2380952   0.0000000), wk =   0.0544218
        k(   39) = (   0.1904762   0.2857143   0.0000000), wk =   0.0544218
        k(   40) = (   0.1904762   0.3333333   0.0000000), wk =   0.0544218
        k(   41) = (   0.1904762   0.3809524   0.0000000), wk =   0.0544218
        k(   42) = (   0.2380952   0.2380952   0.0000000), wk =   0.0272109
        k(   43) = (   0.2380952   0.2857143   0.0000000), wk =   0.0544218
        k(   44) = (   0.2380952   0.3333333   0.0000000), wk =   0.0544218
        k(   45) = (   0.2380952   0.3809524   0.0000000), wk =   0.0272109
        k(   46) = (   0.2857143   0.2857143   0.0000000), wk =   0.0272109
        k(   47) = (   0.2857143   0.3333333   0.0000000), wk =   0.0544218
        k(   48) = (   0.3333333   0.3333333   0.0000000), wk =   0.0090703

     Dense  grid:  1107983 G-vectors     FFT dimensions: (  72,  72, 500)

     Dynamical RAM for                 wfc:       7.93 MB

     Dynamical RAM for     wfc (w. buffer):      71.34 MB

     Dynamical RAM for           str. fact:       8.45 MB

     Dynamical RAM for           local pot:       0.00 MB

     Dynamical RAM for          nlocal pot:      16.91 MB

     Dynamical RAM for                qrad:       2.05 MB

     Dynamical RAM for          rho,v,vnew:      27.51 MB

     Dynamical RAM for               rhoin:       9.17 MB

     Dynamical RAM for            rho*nmix:      67.63 MB

     Dynamical RAM for           G-vectors:      17.96 MB

     Dynamical RAM for          h,s,v(r/c):       0.04 MB

     Dynamical RAM for          <psi|beta>:       0.01 MB

     Dynamical RAM for                 psi:      15.85 MB

     Dynamical RAM for                hpsi:      15.85 MB

     Dynamical RAM for                spsi:      15.85 MB

     Dynamical RAM for      wfcinit/wfcrot:      16.92 MB

     Dynamical RAM for           addusdens:      35.22 MB

     Dynamical RAM for          addusforce:      35.22 MB

     Dynamical RAM for         addusstress:      36.98 MB

     Estimated static dynamical RAM per process >     190.80 MB

     Estimated max dynamical RAM per process >     306.03 MB

     Estimated total dynamical RAM >       5.85 GB

     Initial potential from superposition of free atoms

     starting charge      21.9999, renormalised to      22.0000

     negative rho (up, down):  1.602E-03 0.000E+00
     Starting wfcs are   16 randomized atomic wfcs

     total cpu time spent up to now is       22.2 secs

     Self-consistent Calculation

     iteration #  1     ecut=   500.00 Ry     beta= 0.70
     Davidson diagonalization with overlap

---- Real-time Memory Report at c_bands before calling an iterative solver
           229 MiB given to the printing process from OS
             0 MiB allocation reported by mallinfo(arena+hblkhd)
        247401 MiB available memory on the node where the printing process lives
------------------
     ethr =  1.00E-02,  avg # of iterations =  3.9

     Threshold (ethr) on eigenvalues was too large:
     Diagonalizing with lowered threshold

     Davidson diagonalization with overlap

---- Real-time Memory Report at c_bands before calling an iterative solver
           283 MiB given to the printing process from OS
             0 MiB allocation reported by mallinfo(arena+hblkhd)
        247118 MiB available memory on the node where the printing process lives
------------------
     ethr =  9.45E-04,  avg # of iterations =  1.6

     negative rho (up, down):  4.581E-04 0.000E+00

     total cpu time spent up to now is      156.2 secs

     total energy              =    -120.08892737 Ry
     estimated scf accuracy    <       0.20534782 Ry

     iteration #  2     ecut=   500.00 Ry     beta= 0.70
     Davidson diagonalization with overlap

---- Real-time Memory Report at c_bands before calling an iterative solver
           343 MiB given to the printing process from OS
             0 MiB allocation reported by mallinfo(arena+hblkhd)
        246320 MiB available memory on the node where the printing process lives
------------------
     ethr =  9.33E-04,  avg # of iterations =  2.0

     negative rho (up, down):  2.534E-04 0.000E+00

     total cpu time spent up to now is      215.5 secs

     total energy              =    -120.10206164 Ry
     estimated scf accuracy    <       0.10693035 Ry

     iteration #  3     ecut=   500.00 Ry     beta= 0.70
     Davidson diagonalization with overlap

---- Real-time Memory Report at c_bands before calling an iterative solver
           353 MiB given to the printing process from OS
             0 MiB allocation reported by mallinfo(arena+hblkhd)
        246619 MiB available memory on the node where the printing process lives
------------------
     ethr =  4.86E-04,  avg # of iterations =  3.1

     negative rho (up, down):  5.515E-05 0.000E+00

     total cpu time spent up to now is      289.2 secs

     total energy              =    -120.13180398 Ry
     estimated scf accuracy    <       0.01486486 Ry

     iteration #  4     ecut=   500.00 Ry     beta= 0.70
     Davidson diagonalization with overlap

---- Real-time Memory Report at c_bands before calling an iterative solver
           361 MiB given to the printing process from OS
             0 MiB allocation reported by mallinfo(arena+hblkhd)
        246907 MiB available memory on the node where the printing process lives
------------------
     ethr =  6.76E-05,  avg # of iterations =  4.9

     negative rho (up, down):  9.724E-06 0.000E+00

     total cpu time spent up to now is      386.3 secs

     total energy              =    -120.13427372 Ry
     estimated scf accuracy    <       0.00012595 Ry

     iteration #  5     ecut=   500.00 Ry     beta= 0.70
     Davidson diagonalization with overlap

---- Real-time Memory Report at c_bands before calling an iterative solver
           370 MiB given to the printing process from OS
             0 MiB allocation reported by mallinfo(arena+hblkhd)
        246531 MiB available memory on the node where the printing process lives
------------------
     ethr =  5.72E-07,  avg # of iterations =  6.9

     negative rho (up, down):  5.483E-06 0.000E+00

     total cpu time spent up to now is      510.2 secs

     total energy              =    -120.13431199 Ry
     estimated scf accuracy    <       0.00000595 Ry

     iteration #  6     ecut=   500.00 Ry     beta= 0.70
     Davidson diagonalization with overlap

---- Real-time Memory Report at c_bands before calling an iterative solver
           378 MiB given to the printing process from OS
             0 MiB allocation reported by mallinfo(arena+hblkhd)
        246866 MiB available memory on the node where the printing process lives
------------------
     ethr =  2.71E-08,  avg # of iterations =  2.3

     negative rho (up, down):  5.446E-06 0.000E+00

     total cpu time spent up to now is      571.5 secs

     total energy              =    -120.13431278 Ry
     estimated scf accuracy    <       0.00000025 Ry

     iteration #  7     ecut=   500.00 Ry     beta= 0.70
     Davidson diagonalization with overlap

---- Real-time Memory Report at c_bands before calling an iterative solver
           386 MiB given to the printing process from OS
             0 MiB allocation reported by mallinfo(arena+hblkhd)
        246479 MiB available memory on the node where the printing process lives
------------------
     ethr =  1.15E-09,  avg # of iterations =  2.3

     negative rho (up, down):  5.450E-06 0.000E+00

     total cpu time spent up to now is      637.5 secs

     total energy              =    -120.13431286 Ry
     estimated scf accuracy    <       0.00000005 Ry

     iteration #  8     ecut=   500.00 Ry     beta= 0.70
     Davidson diagonalization with overlap

---- Real-time Memory Report at c_bands before calling an iterative solver
           395 MiB given to the printing process from OS
             0 MiB allocation reported by mallinfo(arena+hblkhd)
        246475 MiB available memory on the node where the printing process lives
------------------
     ethr =  2.06E-10,  avg # of iterations =  2.0

     negative rho (up, down):  5.453E-06 0.000E+00

     total cpu time spent up to now is      695.5 secs

     total energy              =    -120.13431287 Ry
     estimated scf accuracy    <          8.4E-11 Ry

     iteration #  9     ecut=   500.00 Ry     beta= 0.70
     Davidson diagonalization with overlap

---- Real-time Memory Report at c_bands before calling an iterative solver
           403 MiB given to the printing process from OS
             0 MiB allocation reported by mallinfo(arena+hblkhd)
        246102 MiB available memory on the node where the printing process lives
------------------
     ethr =  3.83E-13,  avg # of iterations =  4.5

     negative rho (up, down):  5.454E-06 0.000E+00

     total cpu time spent up to now is      791.5 secs

     total energy              =    -120.13431287 Ry
     estimated scf accuracy    <          3.4E-11 Ry

     iteration # 10     ecut=   500.00 Ry     beta= 0.70
     Davidson diagonalization with overlap

---- Real-time Memory Report at c_bands before calling an iterative solver
           412 MiB given to the printing process from OS
             0 MiB allocation reported by mallinfo(arena+hblkhd)
        246062 MiB available memory on the node where the printing process lives
------------------
     ethr =  1.56E-13,  avg # of iterations =  2.0

     negative rho (up, down):  5.454E-06 0.000E+00

     total cpu time spent up to now is      848.1 secs

     total energy              =    -120.13431287 Ry
     estimated scf accuracy    <          2.2E-12 Ry

     iteration # 11     ecut=   500.00 Ry     beta= 0.70
     Davidson diagonalization with overlap

---- Real-time Memory Report at c_bands before calling an iterative solver
           412 MiB given to the printing process from OS
             0 MiB allocation reported by mallinfo(arena+hblkhd)
        246422 MiB available memory on the node where the printing process lives
------------------
     ethr =  1.00E-13,  avg # of iterations =  1.0

     negative rho (up, down):  5.454E-06 0.000E+00

     total cpu time spent up to now is      892.6 secs

     End of self-consistent calculation

          k = 0.0000 0.0000 0.0000 (138771 PWs)   bands (ev):

   -29.3982 -28.9023 -20.1882 -12.8244  -9.8425  -8.0997  -8.0997  -6.9220
    -6.9220  -3.9534  -3.9534  -0.8110   3.4083   3.4083   3.5914

     occupation numbers 
     1.0000   1.0000   1.0000   1.0000   1.0000   1.0000   1.0000   1.0000
     1.0000   1.0000   1.0000   0.0000   0.0000   0.0000   0.0000

          k = 0.0000 0.0550 0.0000 (138751 PWs)   bands (ev):

   -29.3783 -28.8880 -20.1533 -12.8055  -9.8587  -8.2578  -8.1505  -6.9620
    -6.9301  -4.1128  -4.0091  -0.6796   3.4247   3.5622   3.6657

     occupation numbers 
     1.0000   1.0000   1.0000   1.0000   1.0000   1.0000   1.0000   1.0000
     1.0000   1.0000   1.0000   0.0000   0.0000   0.0000   0.0000

          k = 0.0000 0.1100 0.0000 (138747 PWs)   bands (ev):

   -29.3198 -28.8462 -20.0488 -12.7509  -9.9110  -8.6978  -8.2953  -7.0793
    -6.9550  -4.5210  -4.1575  -0.3565   3.4682   3.8685   3.9958

     occupation numbers 
     1.0000   1.0000   1.0000   1.0000   1.0000   1.0000   1.0000   1.0000
     1.0000   1.0000   1.0000   0.0000   0.0000   0.0000   0.0000

          k = 0.0000 0.1650 0.0000 (138711 PWs)   bands (ev):

   -29.2264 -28.7802 -19.8749 -12.6673 -10.0206  -9.3279  -8.5141  -7.2593
    -6.9972  -5.0592  -4.3582   0.0367   3.5319   4.1861   4.5246

     occupation numbers 
     1.0000   1.0000   1.0000   1.0000   1.0000   1.0000   1.0000   1.0000
     1.0000   1.0000   1.0000   0.0000   0.0000   0.0000   0.0000

          k = 0.0000 0.2199 0.0000 (138610 PWs)   bands (ev):

   -29.1045 -28.6953 -19.6319 -12.5704 -10.3613  -9.8911  -8.7799  -7.4760
    -7.0547  -5.6422  -4.5728   0.4157   3.6249   4.6178   5.0149

     occupation numbers 
     1.0000   1.0000   1.0000   1.0000   1.0000   1.0000   1.0000   1.0000
     1.0000   1.0000   1.0000   0.0000   0.0000   0.0000   0.0000

          k = 0.0000 0.2749 0.0000 (138614 PWs)   bands (ev):

   -28.9627 -28.5987 -19.3202 -12.5072 -11.0917 -10.1237  -9.0639  -7.7016
    -7.1224  -6.2160  -4.7760   0.7356   3.7591   5.1461   5.6019

     occupation numbers 
     1.0000   1.0000   1.0000   1.0000   1.0000   1.0000   1.0000   1.0000
     1.0000   1.0000   1.0000   0.0000   0.0000   0.0000   0.0000

          k = 0.0000 0.3299 0.0000 (138586 PWs)   bands (ev):

   -28.8118 -28.4994 -18.9403 -12.6828 -11.6871 -10.2963  -9.3396  -7.9146
    -7.1936  -6.7428  -4.9543   0.9836   3.9312   5.6791   6.9950

     occupation numbers 
     1.0000   1.0000   1.0000   1.0000   1.0000   1.0000   1.0000   1.0000
     1.0000   1.0000   1.0000   0.0000   0.0000   0.0000   0.0000

          k = 0.0000 0.3849 0.0000 (138490 PWs)   bands (ev):

   -28.6641 -28.4073 -18.4932 -13.3502 -11.8018 -10.4606  -9.5846  -8.1013
    -7.2610  -7.1935  -5.1013   1.1686   4.1215   5.8530   7.6661

     occupation numbers 
     1.0000   1.0000   1.0000   1.0000   1.0000   1.0000   1.0000   1.0000
     1.0000   1.0000   1.0000   0.0000   0.0000   0.0000   0.0000

          k = 0.0000 0.4399 0.0000 (138488 PWs)   bands (ev):

   -28.5329 -28.3322 -17.9821 -14.1853 -11.7335 -10.6068  -9.7821  -8.2539
    -7.5459  -7.3179  -5.2136   1.3059   4.3082   5.5858   8.1862

     occupation numbers 
     1.0000   1.0000   1.0000   1.0000   1.0000   1.0000   1.0000   1.0000
     1.0000   1.0000   1.0000   0.0000   0.0000   0.0000   0.0000

          k = 0.0000 0.4949 0.0000 (138446 PWs)   bands (ev):

   -28.4315 -28.2820 -17.4200 -14.9975 -11.6525 -10.7183  -9.9200  -8.3645
    -7.7851  -7.3591  -5.2894   1.4029   4.4823   5.2427   8.5342

     occupation numbers 
     1.0000   1.0000   1.0000   1.0000   1.0000   1.0000   1.0000   1.0000
     1.0000   1.0000   1.0000   0.0000   0.0000   0.0000   0.0000

          k = 0.0000 0.5499 0.0000 (138374 PWs)   bands (ev):

   -28.3740 -28.2591 -16.8858 -15.6638 -11.6034 -10.7794  -9.9908  -8.4237
    -7.9050  -7.3807  -5.3276   1.4553   4.6410   4.9747   8.7068

     occupation numbers 
     1.0000   1.0000   1.0000   1.0000   1.0000   1.0000   1.0000   1.0000
     1.0000   1.0000   1.0000   0.0000   0.0000   0.0000   0.0000

          k = 0.0476 0.0825 0.0000 (138753 PWs)   bands (ev):

   -29.3391 -28.8600 -20.0836 -12.7688  -9.8926  -8.5510  -8.2551  -7.0323
    -6.9547  -4.3859  -4.1206  -0.4522   3.4812   3.8059   3.8075

     occupation numbers 
     1.0000   1.0000   1.0000   1.0000   1.0000   1.0000   1.0000   1.0000
     1.0000   1.0000   1.0000   0.0000   0.0000   0.0000   0.0000

          k = 0.0476 0.1375 0.0000 (138678 PWs)   bands (ev):

   -29.2631 -28.8061 -19.9444 -12.6995  -9.9675  -9.0791  -8.4519  -7.1661
    -7.0029  -4.8355  -4.3147  -0.0900   3.5755   4.0649   4.2030

     occupation numbers 
     1.0000   1.0000   1.0000   1.0000   1.0000   1.0000   1.0000   1.0000
     1.0000   1.0000   1.0000   0.0000   0.0000   0.0000   0.0000

          k = 0.0476 0.1925 0.0000 (138664 PWs)   bands (ev):

   -29.1555 -28.7305 -19.7359 -12.6081 -10.1360  -9.7209  -8.7089  -7.3558
    -7.0652  -5.3727  -4.5388   0.3087   3.6759   4.4371   4.7136

     occupation numbers 
     1.0000   1.0000   1.0000   1.0000   1.0000   1.0000   1.0000   1.0000
     1.0000   1.0000   1.0000   0.0000   0.0000   0.0000   0.0000

          k = 0.0476 0.2474 0.0000 (138628 PWs)   bands (ev):

   -29.0235 -28.6397 -19.4585 -12.5209 -10.7081 -10.0797  -8.9949  -7.5757
    -7.1398  -5.9302  -4.7572   0.6779   3.7966   4.9187   5.2997

     occupation numbers 
     1.0000   1.0000   1.0000   1.0000   1.0000   1.0000   1.0000   1.0000
     1.0000   1.0000   1.0000   0.0000   0.0000   0.0000   0.0000

          k = 0.0476 0.3024 0.0000 (138571 PWs)   bands (ev):

   -28.8770 -28.5416 -19.1126 -12.5359 -11.4295 -10.2572  -9.2832  -7.7992
    -7.2246  -6.4577  -4.9518   0.9849   3.9479   5.4680   5.9576

     occupation numbers 
     1.0000   1.0000   1.0000   1.0000   1.0000   1.0000   1.0000   1.0000
     1.0000   1.0000   1.0000   0.0000   0.0000   0.0000   0.0000

          k = 0.0476 0.3574 0.0000 (138522 PWs)   bands (ev):

   -28.7275 -28.4457 -18.6988 -12.9655 -11.7741 -10.4198  -9.5526  -8.0063
    -7.3239  -6.9097  -5.1151   1.2250   4.1217   5.8725   6.6948

     occupation numbers 
     1.0000   1.0000   1.0000   1.0000   1.0000   1.0000   1.0000   1.0000
     1.0000   1.0000   1.0000   0.0000   0.0000   0.0000   0.0000

          k = 0.0476 0.4124 0.0000 (138484 PWs)   bands (ev):

   -28.5877 -28.3620 -18.2189 -13.7491 -11.7634 -10.5665  -9.7858  -8.1843
    -7.4786  -7.2121  -5.2440   1.4091   4.2988   5.7683   7.5047

     occupation numbers 
     1.0000   1.0000   1.0000   1.0000   1.0000   1.0000   1.0000   1.0000
     1.0000   1.0000   1.0000   0.0000   0.0000   0.0000   0.0000

          k = 0.0476 0.4674 0.0000 (138496 PWs)   bands (ev):

   -28.4709 -28.2994 -17.6792 -14.5792 -11.6852 -10.6831  -9.9672  -8.3236
    -7.6944  -7.3351  -5.3371   1.5475   4.4650   5.4292   8.2829

     occupation numbers 
     1.0000   1.0000   1.0000   1.0000   1.0000   1.0000   1.0000   1.0000
     1.0000   1.0000   1.0000   0.0000   0.0000   0.0000   0.0000

          k = 0.0476 0.5224 0.0000 (138402 PWs)   bands (ev):

   -28.3904 -28.2636 -17.1096 -15.3395 -11.6216 -10.7576 -10.0830  -8.4139
    -7.8504  -7.3856  -5.3934   1.6386   4.6208   5.1113   8.5488

     occupation numbers 
     1.0000   1.0000   1.0000   1.0000   1.0000   1.0000   1.0000   1.0000
     1.0000   1.0000   1.0000   0.0000   0.0000   0.0000   0.0000

          k = 0.0476 0.5774 0.0000 (138380 PWs)   bands (ev):

   -28.3607 -28.2530 -16.7428 -15.7721 -11.5980 -10.7831 -10.1230  -8.4455
    -7.9043  -7.4009  -5.4122   1.6712   4.7332   4.9363   8.6277

     occupation numbers 
     1.0000   1.0000   1.0000   1.0000   1.0000   1.0000   1.0000   1.0000
     1.0000   1.0000   1.0000   0.0000   0.0000   0.0000   0.0000

          k = 0.0952 0.1650 0.0000 (138665 PWs)   bands (ev):

   -29.1728 -28.7426 -19.7706 -12.6218 -10.0676  -9.6333  -8.7094  -7.2791
    -7.1037  -5.2464  -4.5638   0.2877   3.7942   4.3935   4.4636

     occupation numbers 
     1.0000   1.0000   1.0000   1.0000   1.0000   1.0000   1.0000   1.0000
     1.0000   1.0000   1.0000   0.0000   0.0000   0.0000   0.0000

          k = 0.0952 0.2199 0.0000 (138633 PWs)   bands (ev):

   -29.0551 -28.6611 -19.5277 -12.5350 -10.3706 -10.1497  -9.0120  -7.4443
    -7.2202  -5.7105  -4.8269   0.7014   4.0064   4.8122   4.9577

     occupation numbers 
     1.0000   1.0000   1.0000   1.0000   1.0000   1.0000   1.0000   1.0000
     1.0000   1.0000   1.0000   0.0000   0.0000   0.0000   0.0000

          k = 0.0952 0.2749 0.0000 (138615 PWs)   bands (ev):

   -28.9182 -28.5686 -19.2158 -12.4903 -11.0797 -10.3284  -9.3194  -7.6579
    -7.3322  -6.1829  -5.0590   1.0920   4.1834   5.3231   5.6277

     occupation numbers 
     1.0000   1.0000   1.0000   1.0000   1.0000   1.0000   1.0000   1.0000
     1.0000   1.0000   1.0000   0.0000   0.0000   0.0000   0.0000

          k = 0.0952 0.3299 0.0000 (138621 PWs)   bands (ev):

   -28.7728 -28.4736 -18.8356 -12.6817 -11.6223 -10.4933  -9.6125  -7.8864
    -7.4429  -6.6176  -5.2490   1.4302   4.3461   5.8260   6.3838

     occupation numbers 
     1.0000   1.0000   1.0000   1.0000   1.0000   1.0000   1.0000   1.0000
     1.0000   1.0000   1.0000   0.0000   0.0000   0.0000   0.0000

          k = 0.0952 0.3849 0.0000 (138545 PWs)   bands (ev):

   -28.6308 -28.3857 -18.3880 -13.3140 -11.7475 -10.6368  -9.8824  -8.1012
    -7.5561  -6.9759  -5.3981   1.7115   4.4978   5.9490   7.1768

     occupation numbers 
     1.0000   1.0000   1.0000   1.0000   1.0000   1.0000   1.0000   1.0000
     1.0000   1.0000   1.0000   0.0000   0.0000   0.0000   0.0000

          k = 0.0952 0.4399 0.0000 (138466 PWs)   bands (ev):

   -28.5047 -28.3143 -17.8765 -14.1166 -11.7046 -10.7359 -10.1206  -8.2816
    -7.6737  -7.2296  -5.5087   1.9413   4.6319   5.6592   7.8803

     occupation numbers 
     1.0000   1.0000   1.0000   1.0000   1.0000   1.0000   1.0000   1.0000
     1.0000   1.0000   1.0000   0.0000   0.0000   0.0000   0.0000

          k = 0.0952 0.4949 0.0000 (138444 PWs)   bands (ev):

   -28.4072 -28.2668 -17.3147 -14.9095 -11.6499 -10.7775 -10.3134  -8.4118
    -7.7827  -7.3756  -5.5823   2.1167   4.7474   5.3108   8.2248

     occupation numbers 
     1.0000   1.0000   1.0000   1.0000   1.0000   1.0000   1.0000   1.0000
     1.0000   1.0000   1.0000   0.0000   0.0000   0.0000   0.0000

          k = 0.0952 0.5499 0.0000 (138404 PWs)   bands (ev):

   -28.3518 -28.2455 -16.7821 -15.5654 -11.6200 -10.7752 -10.4336  -8.4800
    -7.8494  -7.4384  -5.6191   2.2171   4.8611   5.0464   8.3537

     occupation numbers 
     1.0000   1.0000   1.0000   1.0000   1.0000   1.0000   1.0000   1.0000
     1.0000   1.0000   1.0000   0.0000   0.0000   0.0000   0.0000

          k = 0.1429 0.2474 0.0000 (138603 PWs)   bands (ev):

   -28.9323 -28.5778 -19.2502 -12.4820 -10.8610 -10.4362  -9.3460  -7.5436
    -7.4363  -6.0560  -5.1338   1.1476   4.4129   5.3071   5.3159

     occupation numbers 
     1.0000   1.0000   1.0000   1.0000   1.0000   1.0000   1.0000   1.0000
     1.0000   1.0000   1.0000   0.0000   0.0000   0.0000   0.0000

          k = 0.1429 0.3024 0.0000 (138594 PWs)   bands (ev):

   -28.7965 -28.4882 -18.9039 -12.5551 -11.3809 -10.6738  -9.6580  -7.7439
    -7.5890  -6.4047  -5.3947   1.5853   4.7358   5.7784   5.9647

     occupation numbers 
     1.0000   1.0000   1.0000   1.0000   1.0000   1.0000   1.0000   1.0000
     1.0000   1.0000   1.0000   0.0000   0.0000   0.0000   0.0000

          k = 0.1429 0.3574 0.0000 (138566 PWs)   bands (ev):

   -28.6582 -28.4010 -18.4894 -12.9685 -11.6466 -10.8743  -9.9377  -8.0044
    -7.6724  -6.7403  -5.5929   1.9832   4.9389   6.0869   6.7402

     occupation numbers 
     1.0000   1.0000   1.0000   1.0000   1.0000   1.0000   1.0000   1.0000
     1.0000   1.0000   1.0000   0.0000   0.0000   0.0000   0.0000

          k = 0.1429 0.4124 0.0000 (138516 PWs)   bands (ev):

   -28.5293 -28.3252 -18.0087 -13.6653 -11.6911 -10.9978 -10.1908  -8.2370
    -7.7337  -7.0384  -5.7364   2.3356   5.0674   5.9146   7.4381

     occupation numbers 
     1.0000   1.0000   1.0000   1.0000   1.0000   1.0000   1.0000   1.0000
     1.0000   1.0000   1.0000   0.0000   0.0000   0.0000   0.0000

          k = 0.1429 0.4674 0.0000 (138502 PWs)   bands (ev):

   -28.4216 -28.2691 -17.4690 -14.4355 -11.6999 -11.0156 -10.4200  -8.4142
    -7.7715  -7.2778  -5.8345   2.6404   5.1429   5.5483   7.8407

     occupation numbers 
     1.0000   1.0000   1.0000   1.0000   1.0000   1.0000   1.0000   1.0000
     1.0000   1.0000   1.0000   0.0000   0.0000   0.0000   0.0000

          k = 0.1429 0.5224 0.0000 (138411 PWs)   bands (ev):

   -28.3471 -28.2378 -16.9015 -15.1621 -11.7174 -10.9415 -10.6219  -8.5234
    -7.7851  -7.4395  -5.8921   2.8720   5.1267   5.2881   7.9895

     occupation numbers 
     1.0000   1.0000   1.0000   1.0000   1.0000   1.0000   1.0000   1.0000
     1.0000   1.0000   1.0000   0.0000   0.0000   0.0000   0.0000

          k = 0.1429 0.5774 0.0000 (138412 PWs)   bands (ev):

   -28.3192 -28.2290 -16.5377 -15.5819 -11.7266 -10.8402 -10.7617  -8.5600
    -7.7853  -7.4993  -5.9112   2.9649   5.0406   5.2594   8.0239

     occupation numbers 
     1.0000   1.0000   1.0000   1.0000   1.0000   1.0000   1.0000   1.0000
     1.0000   1.0000   1.0000   0.0000   0.0000   0.0000   0.0000

          k = 0.1905 0.3299 0.0000 (138563 PWs)   bands (ev):

   -28.6677 -28.4062 -18.5231 -12.8346 -11.5230 -11.0747  -9.9466  -7.9393
    -7.7475  -6.6280  -5.6939   2.0825   5.3067   6.2006   6.2965

     occupation numbers 
     1.0000   1.0000   1.0000   1.0000   1.0000   1.0000   1.0000   1.0000
     1.0000   1.0000   1.0000   0.0000   0.0000   0.0000   0.0000

          k = 0.1905 0.3849 0.0000 (138528 PWs)   bands (ev):

   -28.5423 -28.3310 -18.0748 -13.3479 -11.5982 -11.3519 -10.1879  -8.2016
    -7.7947  -6.8695  -5.9221   2.5462   5.6326   6.2375   6.8671

     occupation numbers 
     1.0000   1.0000   1.0000   1.0000   1.0000   1.0000   1.0000   1.0000
     1.0000   1.0000   1.0000   0.0000   0.0000   0.0000   0.0000

          k = 0.1905 0.4399 0.0000 (138469 PWs)   bands (ev):

   -28.4313 -28.2706 -17.5634 -14.0045 -11.8153 -11.3141 -10.4002  -8.4188
    -7.8034  -7.1161  -6.0781   2.9696   5.7059   5.9577   7.4582

     occupation numbers 
     1.0000   1.0000   1.0000   1.0000   1.0000   1.0000   1.0000   1.0000
     1.0000   1.0000   1.0000   0.0000   0.0000   0.0000   0.0000

          k = 0.1905 0.4949 0.0000 (138432 PWs)   bands (ev):

   -28.3452 -28.2315 -17.0037 -14.7054 -11.9868 -11.1910 -10.5889  -8.5676
    -7.7738  -7.3399  -6.1743   3.3445   5.4313   5.8798   7.6362

     occupation numbers 
     1.0000   1.0000   1.0000   1.0000   1.0000   1.0000   1.0000   1.0000
     1.0000   1.0000   1.0000   0.0000   0.0000   0.0000   0.0000

          k = 0.1905 0.5499 0.0000 (138452 PWs)   bands (ev):

   -28.2952 -28.2152 -16.4754 -15.3167 -12.0717 -11.0734 -10.7341  -8.6420
    -7.7103  -7.5083  -6.2203   3.6076   5.1429   5.8884   7.6573

     occupation numbers 
     1.0000   1.0000   1.0000   1.0000   1.0000   1.0000   1.0000   1.0000
     1.0000   1.0000   1.0000   0.0000   0.0000   0.0000   0.0000

          k = 0.2381 0.4124 0.0000 (138469 PWs)   bands (ev):

   -28.4347 -28.2711 -17.5950 -13.8062 -11.9225 -11.4106 -10.3839  -8.4213
    -7.8209  -7.0249  -6.1945   3.0684   5.8234   6.8283   6.8951

     occupation numbers 
     1.0000   1.0000   1.0000   1.0000   1.0000   1.0000   1.0000   1.0000
     1.0000   1.0000   1.0000   0.0000   0.0000   0.0000   0.0000

          k = 0.2381 0.4674 0.0000 (138463 PWs)   bands (ev):

   -28.3446 -28.2279 -17.0588 -14.3522 -12.3028 -11.2776 -10.5535  -8.5973
    -7.7884  -7.2080  -6.3858   3.5411   5.6048   6.8403   7.4115

     occupation numbers 
     1.0000   1.0000   1.0000   1.0000   1.0000   1.0000   1.0000   1.0000
     1.0000   1.0000   1.0000   0.0000   0.0000   0.0000   0.0000

          k = 0.2381 0.5224 0.0000 (138495 PWs)   bands (ev):

   -28.2810 -28.2059 -16.4975 -14.9434 -12.5279 -11.1416 -10.7018  -8.7065
    -7.7050  -7.3995  -6.4937   3.9469   5.2942   6.8153   7.3636

     occupation numbers 
     1.0000   1.0000   1.0000   1.0000   1.0000   1.0000   1.0000   1.0000
     1.0000   1.0000   1.0000   0.0000   0.0000   0.0000   0.0000

          k = 0.2381 0.5774 0.0000 (138458 PWs)   bands (ev):

   -28.2559 -28.2013 -16.1321 -15.3243 -12.6003 -11.0660 -10.7806  -8.7431
    -7.5858  -7.5586  -6.5280   4.1492   5.1139   6.8058   7.3297

     occupation numbers 
     1.0000   1.0000   1.0000   1.0000   1.0000   1.0000   1.0000   1.0000
     1.0000   1.0000   1.0000   0.0000   0.0000   0.0000   0.0000

          k = 0.2857 0.4949 0.0000 (138510 PWs)   bands (ev):

   -28.2763 -28.2025 -16.5120 -14.7511 -12.7543 -11.1544 -10.6878  -8.7315
    -7.7134  -7.3174  -6.6225   4.0386   5.3718   7.1989   7.8136

     occupation numbers 
     1.0000   1.0000   1.0000   1.0000   1.0000   1.0000   1.0000   1.0000
     1.0000   1.0000   1.0000   0.0000   0.0000   0.0000   0.0000

          k = 0.2857 0.5499 0.0000 (138475 PWs)   bands (ev):

   -28.2334 -28.1961 -15.9863 -15.1951 -13.0013 -11.0330 -10.8056  -8.8020
    -7.5960  -7.4479  -6.7507   4.4336   5.1006   7.1167   7.8048

     occupation numbers 
     1.0000   1.0000   1.0000   1.0000   1.0000   1.0000   1.0000   1.0000
     1.0000   1.0000   1.0000   0.0000   0.0000   0.0000   0.0000

          k = 0.3333 0.5774 0.0000 (138462 PWs)   bands (ev):

   -28.2049 -28.2049 -15.5335 -15.5335 -13.1928 -10.9161 -10.9161  -8.8360
    -7.5002  -7.5002  -6.8615   4.8177   4.8177   7.0277   8.4926

     occupation numbers 
     1.0000   1.0000   1.0000   1.0000   1.0000   1.0000   1.0000   1.0000
     1.0000   1.0000   1.0000   0.0000   0.0000   0.0000   0.0000

     the Fermi energy is    -3.1500 ev

!    total energy              =    -120.13431287 Ry
     estimated scf accuracy    <          2.0E-13 Ry
     smearing contrib. (-TS)   =       0.00000000 Ry
     internal energy E=F+TS    =    -120.13431287 Ry

     The total energy is F=E-TS. E is the sum of the following terms:
     one-electron contribution =    -975.19910661 Ry
     hartree contribution      =     493.36102780 Ry
     xc contribution           =     -25.85846036 Ry
     ewald contribution        =     387.56222630 Ry

     convergence has been achieved in  11 iterations

     negative rho (up, down):  5.454E-06 0.000E+00

     Forces acting on atoms (cartesian axes, Ry/au):

     atom    1 type  1   force =     0.00000000    0.00000000   -0.00034261
     atom    2 type  1   force =     0.00000000    0.00000000    0.00034261
     atom    3 type  2   force =    -0.00000000   -0.00000000    0.00003309
     atom    4 type  2   force =     0.00000000    0.00000000   -0.00003309
     The non-local contrib.  to forces
     atom    1 type  1   force =     0.00000000    0.00000000   -0.39808806
     atom    2 type  1   force =    -0.00000000   -0.00000000    0.39808806
     atom    3 type  2   force =     0.00000000    0.00000000    2.50680120
     atom    4 type  2   force =     0.00000000    0.00000000   -2.50680120
     The ionic contribution  to forces
     atom    1 type  1   force =    -0.00000001    0.00000000   -1.16488099
     atom    2 type  1   force =     0.00000001   -0.00000000    1.16488099
     atom    3 type  2   force =    -0.00000000    0.00000000  -48.74159951
     atom    4 type  2   force =     0.00000000   -0.00000000   48.74159951
     The local contribution  to forces
     atom    1 type  1   force =    -0.00000000    0.00000001    1.55945568
     atom    2 type  1   force =     0.00000001   -0.00000000   -1.55945567
     atom    3 type  2   force =    -0.00000000    0.00000007   46.23483006
     atom    4 type  2   force =     0.00000016   -0.00000003  -46.23483008
     The core correction contribution to forces
     atom    1 type  1   force =    -0.00000000   -0.00000000    0.00317054
     atom    2 type  1   force =    -0.00000000    0.00000000   -0.00317054
     atom    3 type  2   force =     0.00000000    0.00000000    0.00000000
     atom    4 type  2   force =     0.00000000    0.00000000    0.00000000
     The Hubbard contrib.    to forces
     atom    1 type  1   force =     0.00000000    0.00000000    0.00000000
     atom    2 type  1   force =     0.00000000    0.00000000    0.00000000
     atom    3 type  2   force =     0.00000000    0.00000000    0.00000000
     atom    4 type  2   force =     0.00000000    0.00000000    0.00000000
     The SCF correction term to forces
     atom    1 type  1   force =    -0.00000000   -0.00000000    0.00000023
     atom    2 type  1   force =     0.00000000   -0.00000000   -0.00000023
     atom    3 type  2   force =    -0.00000000    0.00000000    0.00000133
     atom    4 type  2   force =     0.00000000   -0.00000000   -0.00000133

     Total force =     0.000487     Total SCF correction =     0.000002


     Computing stress (Cartesian axis) and pressure


     negative rho (up, down):  5.454E-06 0.000E+00
          total   stress  (Ry/bohr**3)                   (kbar)     P=        0.10
   0.00000099   0.00000000   0.00000000            0.14        0.00        0.00
   0.00000000   0.00000099   0.00000000            0.00        0.14        0.00
   0.00000000   0.00000000   0.00000002            0.00        0.00        0.00

     kinetic stress (kbar)   6756.37      0.00      0.00
                                0.00   6756.37     -0.00
                                0.00     -0.00   6005.58

     local   stress (kbar)-188576.43      0.00     -0.00
                                0.00-188576.43      0.00
                               -0.00      0.00 183501.22

     nonloc. stress (kbar)    872.15      0.00     -0.00
                                0.00    872.15      0.00
                                0.00     -0.00    676.83

     hartree stress (kbar)  94250.27     -0.00      0.00
                               -0.00  94250.27     -0.00
                                0.00     -0.00 -89587.47

     exc-cor stress (kbar)  -1583.33     -0.00      0.00
                               -0.00  -1583.33     -0.00
                                0.00     -0.00  -1573.09

     corecor stress (kbar)    -54.54      0.00     -0.00
                                0.00    -54.54      0.00
                               -0.00      0.00    -53.44

     ewald   stress (kbar)  88335.65     -0.00      0.00
                               -0.00  88335.65     -0.00
                                0.00     -0.00 -98969.63

     hubbard stress (kbar)      0.00      0.00      0.00
                                0.00      0.00      0.00
                                0.00      0.00      0.00

     DFT-D   stress (kbar)      0.00      0.00      0.00
                                0.00      0.00      0.00
                                0.00      0.00      0.00

     XDM     stress (kbar)      0.00      0.00      0.00
                                0.00      0.00      0.00
                                0.00      0.00      0.00

     dft-nl  stress (kbar)      0.00      0.00      0.00
                                0.00      0.00      0.00
                                0.00      0.00      0.00

     TS-vdW  stress (kbar)      0.00      0.00      0.00
                                0.00      0.00      0.00
                                0.00      0.00      0.00

     MDB     stress (kbar)      0.00      0.00      0.00
                                0.00      0.00      0.00
                                0.00      0.00      0.00

     3D-RISM stress (kbar)      0.00      0.00      0.00
                                0.00      0.00      0.00
                                0.00      0.00      0.00


     Writing all to output data dir ../tmp/fgc.save/

     init_run     :     11.97s CPU     20.93s WALL (       1 calls)
     electrons    :    487.67s CPU    870.57s WALL (       1 calls)
     forces       :      5.97s CPU     12.84s WALL (       1 calls)
     stress       :      8.80s CPU     17.46s WALL (       1 calls)

     Called by init_run:
     wfcinit      :      9.71s CPU     18.04s WALL (       1 calls)
     wfcinit:atom :      0.08s CPU      0.23s WALL (       8 calls)
     wfcinit:wfcr :      9.10s CPU     17.05s WALL (       8 calls)
     potinit      :      0.84s CPU      0.92s WALL (       1 calls)
     hinit0       :      0.86s CPU      0.90s WALL (       1 calls)

     Called by electrons:
     c_bands      :    424.17s CPU    769.00s WALL (      12 calls)
     sum_band     :     54.32s CPU     87.64s WALL (      12 calls)
     v_of_rho     :      4.33s CPU      4.59s WALL (      12 calls)
     v_h          :      0.36s CPU      0.37s WALL (      12 calls)
     v_xc         :      4.61s CPU      4.93s WALL (      14 calls)
     newd         :      3.83s CPU      8.28s WALL (      12 calls)
     mix_rho      :      0.69s CPU      0.92s WALL (      12 calls)

     Called by c_bands:
     init_us_2    :      2.06s CPU      2.90s WALL (     216 calls)
     init_us_2:cp :      2.06s CPU      2.90s WALL (     216 calls)
     cegterg      :    344.71s CPU    626.06s WALL (      96 calls)

     Called by sum_band:
     sum_band:wei :      0.21s CPU      0.21s WALL (      12 calls)
     sum_band:loo :     42.97s CPU     70.33s WALL (      12 calls)
     sum_band:buf :      0.22s CPU      0.40s WALL (      96 calls)
     sum_band:ini :      1.02s CPU      1.39s WALL (      96 calls)
     sum_band:cal :     13.51s CPU     24.78s WALL (      96 calls)
     sum_band:bec :      0.00s CPU      0.00s WALL (      96 calls)
     addusdens    :      2.13s CPU      5.49s WALL (      12 calls)
     addusd:skk   :      0.01s CPU      0.01s WALL (      24 calls)
     addusd:dgemm :      0.78s CPU      2.69s WALL (      24 calls)
     addusd:qvan2 :      0.68s CPU      1.85s WALL (      24 calls)

     Called by *egterg:
     cdiaghg      :     23.05s CPU     44.73s WALL (     413 calls)
     cegterg:over :     56.16s CPU     91.56s WALL (     325 calls)
     cegterg:upda :      7.35s CPU     15.11s WALL (     325 calls)
     cegterg:last :      8.23s CPU     12.51s WALL (     208 calls)
     h_psi        :    210.36s CPU    388.32s WALL (     429 calls)
     s_psi        :      4.96s CPU      6.82s WALL (     429 calls)
     g_psi        :      0.34s CPU      0.32s WALL (     325 calls)

     Called by h_psi:
     h_psi:calbec :     53.45s CPU    103.33s WALL (     429 calls)
     vloc_psi     :    145.45s CPU    259.51s WALL (     429 calls)
     add_vuspsi   :     11.06s CPU     24.72s WALL (     429 calls)

     General routines
     calbec       :     72.51s CPU    141.96s WALL (     565 calls)
     fft          :      3.45s CPU      3.75s WALL (     158 calls)
     ffts         :      0.43s CPU      0.46s WALL (      12 calls)
     fftw         :    157.68s CPU    280.38s WALL (    9304 calls)

     Parallel routines

     PWSCF        :   8m35.37s CPU  15m24.90s WALL


   This run was terminated on:   6: 1:44  24Feb2024            

=------------------------------------------------------------------------------=
   JOB DONE.
=------------------------------------------------------------------------------=
