
     Program PWSCF v.7.1 starts on 24Feb2024 at  5: 9:44 

     This program is part of the open-source Quantum ESPRESSO suite
     for quantum simulation of materials; please cite
         "P. Giannozzi et al., J. Phys.:Condens. Matter 21 395502 (2009);
         "P. Giannozzi et al., J. Phys.:Condens. Matter 29 465901 (2017);
         "P. Giannozzi et al., J. Chem. Phys. 152 154105 (2020);
          URL http://www.quantum-espresso.org", 
     in publications or presentations arising from this work. More details at
     http://www.quantum-espresso.org/quote

     Parallel version (MPI), running on    24 processors

     MPI processes distributed on     1 nodes
     256503 MiB available memory on the printing compute node when the environment starts

     Reading input from kpoint.6.in

     Current dimensions of program PWSCF are:
     Max number of different atomic species (ntypx) = 10
     Max number of k-points (npk) =  40000
     Max angular momentum in pseudopotentials (lmaxx) =  4

     K-points division:     npool     =       6
     R & G space division:  proc/nbgrp/npool/nimage =       4
     Subspace diagonalization in iterative solution of the eigenvalue problem:
     a serial algorithm will be used


     Parallelization info
     --------------------
     sticks:   dense  smooth     PW     G-vecs:    dense   smooth      PW
     Min         832     832    228               276984   276984   38734
     Max         833     833    229               277001   277001   38747
     Sum        3331    3331    913              1107983  1107983  154963

     Using Slab Decomposition



     bravais-lattice index     =            4
     lattice parameter (alat)  =       4.9229  a.u.
     unit-cell volume          =     733.7343 (a.u.)^3
     number of atoms/cell      =            4
     number of atomic types    =            2
     number of electrons       =        22.00
     number of Kohn-Sham states=           15
     kinetic-energy cutoff     =     500.0000  Ry
     charge density cutoff     =    2000.0000  Ry
     scf convergence threshold =      1.0E-12
     mixing beta               =       0.7000
     number of iterations used =            8  plain     mixing
     Exchange-correlation=  SLA  PW   PBX  PBC
                           (   1   4   3   4   0   0   0)

     celldm(1)=   4.922852  celldm(2)=   0.000000  celldm(3)=   7.101627
     celldm(4)=   0.000000  celldm(5)=   0.000000  celldm(6)=   0.000000

     crystal axes: (cart. coord. in units of alat)
               a(1) = (   1.000000   0.000000   0.000000 )  
               a(2) = (  -0.500000   0.866025   0.000000 )  
               a(3) = (   0.000000   0.000000   7.101627 )  

     reciprocal axes: (cart. coord. in units 2 pi/alat)
               b(1) = (  1.000000  0.577350 -0.000000 )  
               b(2) = (  0.000000  1.154701  0.000000 )  
               b(3) = (  0.000000 -0.000000  0.140813 )  


     PseudoPot. # 1 for C  read from file:
     ../pseudo/c_pbe_v1.2.uspp.F.UPF
     MD5 check sum: d1aef80898a10debaa0f26306b886e00
     Pseudo is Ultrasoft + core correction, Zval =  4.0
     Generated by new atomic code, or converted to UPF format
     Using radial grid of  721 points,  4 beta functions with: 
                l(1) =   0
                l(2) =   0
                l(3) =   1
                l(4) =   1
     Q(r) pseudized with  8 coefficients,  rinner =    1.100   1.100   1.100


     PseudoPot. # 2 for F  read from file:
     ../pseudo/f_pbe_v1.4.uspp.F.UPF
     MD5 check sum: 4c38b6a325caf53ec0e86aed9459de46
     Pseudo is Ultrasoft, Zval =  7.0
     Generated by new atomic code, or converted to UPF format
     Using radial grid of  799 points,  4 beta functions with: 
                l(1) =   0
                l(2) =   0
                l(3) =   1
                l(4) =   1
     Q(r) pseudized with  8 coefficients,  rinner =    0.950   0.950   0.950


     atomic species   valence    mass     pseudopotential
        C              4.00    12.01070     C ( 1.00)
        F              7.00    18.99840     F ( 1.00)

     12 Sym. Ops., with inversion, found ( 8 have fractional translation)


                                    s                        frac. trans.

      isym =  1     identity                                     

 cryst.   s( 1) = (     1          0          0      )
                  (     0          1          0      )
                  (     0          0          1      )

 cart.    s( 1) = (  1.0000000  0.0000000  0.0000000 )
                  (  0.0000000  1.0000000  0.0000000 )
                  (  0.0000000  0.0000000  1.0000000 )


      isym =  2     180 deg rotation - cart. axis [1,0,0]        

 cryst.   s( 2) = (     1          0          0      )
                  (    -1         -1          0      )
                  (     0          0         -1      )

 cart.    s( 2) = (  1.0000000  0.0000000  0.0000000 )
                  (  0.0000000 -1.0000000  0.0000000 )
                  (  0.0000000  0.0000000 -1.0000000 )


      isym =  3     120 deg rotation - cryst. axis [0,0,1]       

 cryst.   s( 3) = (     0          1          0      )    f =( -0.5000000 )
                  (    -1         -1          0      )       ( -0.5000000 )
                  (     0          0          1      )       (  0.0000000 )

 cart.    s( 3) = ( -0.5000000 -0.8660254  0.0000000 )    f =( -0.2500000 )
                  (  0.8660254 -0.5000000  0.0000000 )       ( -0.4330127 )
                  (  0.0000000  0.0000000  1.0000000 )       (  0.0000000 )


      isym =  4     120 deg rotation - cryst. axis [0,0,-1]      

 cryst.   s( 4) = (    -1         -1          0      )    f =(  0.0000000 )
                  (     1          0          0      )       ( -0.5000000 )
                  (     0          0          1      )       (  0.0000000 )

 cart.    s( 4) = ( -0.5000000  0.8660254  0.0000000 )    f =(  0.2500000 )
                  ( -0.8660254 -0.5000000  0.0000000 )       ( -0.4330127 )
                  (  0.0000000  0.0000000  1.0000000 )       (  0.0000000 )


      isym =  5     180 deg rotation - cryst. axis [0,1,0]       

 cryst.   s( 5) = (    -1         -1          0      )    f =(  0.0000000 )
                  (     0          1          0      )       ( -0.5000000 )
                  (     0          0         -1      )       (  0.0000000 )

 cart.    s( 5) = ( -0.5000000 -0.8660254  0.0000000 )    f =(  0.2500000 )
                  ( -0.8660254  0.5000000  0.0000000 )       ( -0.4330127 )
                  (  0.0000000  0.0000000 -1.0000000 )       (  0.0000000 )


      isym =  6     180 deg rotation - cryst. axis [1,1,0]       

 cryst.   s( 6) = (     0          1          0      )    f =(  0.5000000 )
                  (     1          0          0      )       (  0.5000000 )
                  (     0          0         -1      )       (  0.0000000 )

 cart.    s( 6) = ( -0.5000000  0.8660254  0.0000000 )    f =(  0.2500000 )
                  (  0.8660254  0.5000000  0.0000000 )       (  0.4330127 )
                  (  0.0000000  0.0000000 -1.0000000 )       (  0.0000000 )


      isym =  7     inversion                                    

 cryst.   s( 7) = (    -1          0          0      )
                  (     0         -1          0      )
                  (     0          0         -1      )

 cart.    s( 7) = ( -1.0000000  0.0000000  0.0000000 )
                  (  0.0000000 -1.0000000  0.0000000 )
                  (  0.0000000  0.0000000 -1.0000000 )


      isym =  8     inv. 180 deg rotation - cart. axis [1,0,0]   

 cryst.   s( 8) = (    -1          0          0      )
                  (     1          1          0      )
                  (     0          0          1      )

 cart.    s( 8) = ( -1.0000000  0.0000000  0.0000000 )
                  (  0.0000000  1.0000000  0.0000000 )
                  (  0.0000000  0.0000000  1.0000000 )


      isym =  9     inv. 120 deg rotation - cryst. axis [0,0,1]  

 cryst.   s( 9) = (     0         -1          0      )    f =(  0.5000000 )
                  (     1          1          0      )       ( -0.5000000 )
                  (     0          0         -1      )       (  0.0000000 )

 cart.    s( 9) = (  0.5000000  0.8660254  0.0000000 )    f =(  0.7500000 )
                  ( -0.8660254  0.5000000  0.0000000 )       ( -0.4330127 )
                  (  0.0000000  0.0000000 -1.0000000 )       (  0.0000000 )


      isym = 10     inv. 120 deg rotation - cryst. axis [0,0,-1] 

 cryst.   s(10) = (     1          1          0      )    f =(  0.0000000 )
                  (    -1          0          0      )       (  0.5000000 )
                  (     0          0         -1      )       (  0.0000000 )

 cart.    s(10) = (  0.5000000 -0.8660254  0.0000000 )    f =( -0.2500000 )
                  (  0.8660254  0.5000000  0.0000000 )       (  0.4330127 )
                  (  0.0000000  0.0000000 -1.0000000 )       (  0.0000000 )


      isym = 11     inv. 180 deg rotation - cryst. axis [0,1,0]  

 cryst.   s(11) = (     1          1          0      )    f =(  0.0000000 )
                  (     0         -1          0      )       ( -0.5000000 )
                  (     0          0          1      )       (  0.0000000 )

 cart.    s(11) = (  0.5000000  0.8660254  0.0000000 )    f =(  0.2500000 )
                  (  0.8660254 -0.5000000  0.0000000 )       ( -0.4330127 )
                  (  0.0000000  0.0000000  1.0000000 )       (  0.0000000 )


      isym = 12     inv. 180 deg rotation - cryst. axis [1,1,0]  

 cryst.   s(12) = (     0         -1          0      )    f =( -0.5000000 )
                  (    -1          0          0      )       ( -0.5000000 )
                  (     0          0          1      )       (  0.0000000 )

 cart.    s(12) = (  0.5000000 -0.8660254  0.0000000 )    f =( -0.2500000 )
                  ( -0.8660254 -0.5000000  0.0000000 )       ( -0.4330127 )
                  (  0.0000000  0.0000000  1.0000000 )       (  0.0000000 )


     point group D_3d (-3m) 
     there are  6 classes
     the character table:

       E     2C3   3C2'  i     2S6   3s_d 
A_1g   1.00  1.00  1.00  1.00  1.00  1.00
A_2g   1.00  1.00 -1.00  1.00  1.00 -1.00
E_g    2.00 -1.00  0.00  2.00 -1.00  0.00
A_1u   1.00  1.00  1.00 -1.00 -1.00 -1.00
A_2u   1.00  1.00 -1.00 -1.00 -1.00  1.00
E_u    2.00 -1.00  0.00 -2.00  1.00  0.00

     the symmetry operations in each class and the name of the first element:

     E        1
          identity                                               
     2C3      3    4
          120 deg rotation - cryst. axis [0,0,1]                 
     3C2'     2    5    6
          180 deg rotation - cart. axis [1,0,0]                  
     i        7
          inversion                                              
     2S6      9   10
          inv. 120 deg rotation - cryst. axis [0,0,1]            
     3s_d     8   11   12
          inv. 180 deg rotation - cart. axis [1,0,0]             

   Cartesian axes

     site n.     atom                  positions (alat units)
         1           C   tau(   1) = (   0.5000000   0.5773503  -0.0938017  )
         2           C   tau(   2) = (  -0.0000000   0.2886751   0.0938017  )
         3           F   tau(   3) = (   0.5000000   0.5773503  -0.6235043  )
         4           F   tau(   4) = (  -0.0000000   0.2886751   0.6235043  )

   Crystallographic axes

     site n.     atom                  positions (cryst. coord.)
         1           C   tau(   1) = (  0.8333333  0.6666667 -0.0132085  )
         2           C   tau(   2) = (  0.1666667  0.3333333  0.0132085  )
         3           F   tau(   3) = (  0.8333333  0.6666667 -0.0877974  )
         4           F   tau(   4) = (  0.1666667  0.3333333  0.0877974  )

     number of k points=     7  Marzari-Vanderbilt smearing, width (Ry)=  0.0010
                       cart. coord. in units 2pi/alat
        k(    1) = (   0.0000000   0.0000000   0.0000000), wk =   0.0555556
        k(    2) = (   0.0000000   0.1924501   0.0000000), wk =   0.3333333
        k(    3) = (   0.0000000   0.3849002   0.0000000), wk =   0.3333333
        k(    4) = (   0.0000000  -0.5773503   0.0000000), wk =   0.1666667
        k(    5) = (   0.1666667   0.2886751   0.0000000), wk =   0.3333333
        k(    6) = (   0.1666667   0.4811252   0.0000000), wk =   0.6666667
        k(    7) = (   0.3333333   0.5773503   0.0000000), wk =   0.1111111

                       cryst. coord.
        k(    1) = (   0.0000000   0.0000000   0.0000000), wk =   0.0555556
        k(    2) = (   0.0000000   0.1666667   0.0000000), wk =   0.3333333
        k(    3) = (   0.0000000   0.3333333   0.0000000), wk =   0.3333333
        k(    4) = (   0.0000000  -0.5000000   0.0000000), wk =   0.1666667
        k(    5) = (   0.1666667   0.1666667   0.0000000), wk =   0.3333333
        k(    6) = (   0.1666667   0.3333333   0.0000000), wk =   0.6666667
        k(    7) = (   0.3333333   0.3333333   0.0000000), wk =   0.1111111

     Dense  grid:  1107983 G-vectors     FFT dimensions: (  72,  72, 500)

     Dynamical RAM for                 wfc:       7.93 MB

     Dynamical RAM for     wfc (w. buffer):      23.78 MB

     Dynamical RAM for           str. fact:       8.45 MB

     Dynamical RAM for           local pot:       0.00 MB

     Dynamical RAM for          nlocal pot:      16.91 MB

     Dynamical RAM for                qrad:       2.05 MB

     Dynamical RAM for          rho,v,vnew:      27.51 MB

     Dynamical RAM for               rhoin:       9.17 MB

     Dynamical RAM for            rho*nmix:      67.63 MB

     Dynamical RAM for           G-vectors:      17.96 MB

     Dynamical RAM for          h,s,v(r/c):       0.04 MB

     Dynamical RAM for          <psi|beta>:       0.01 MB

     Dynamical RAM for                 psi:      15.85 MB

     Dynamical RAM for                hpsi:      15.85 MB

     Dynamical RAM for                spsi:      15.85 MB

     Dynamical RAM for      wfcinit/wfcrot:      16.92 MB

     Dynamical RAM for           addusdens:      35.22 MB

     Dynamical RAM for          addusforce:      35.22 MB

     Dynamical RAM for         addusstress:      36.98 MB

     Estimated static dynamical RAM per process >     143.24 MB

     Estimated max dynamical RAM per process >     258.47 MB

     Estimated total dynamical RAM >       4.74 GB

     Initial potential from superposition of free atoms

     starting charge      21.9999, renormalised to      22.0000

     negative rho (up, down):  1.602E-03 0.000E+00
     Starting wfcs are   16 randomized atomic wfcs

     total cpu time spent up to now is        5.6 secs

     Self-consistent Calculation

     iteration #  1     ecut=   500.00 Ry     beta= 0.70
     Davidson diagonalization with overlap

---- Real-time Memory Report at c_bands before calling an iterative solver
           201 MiB given to the printing process from OS
             0 MiB allocation reported by mallinfo(arena+hblkhd)
        252592 MiB available memory on the node where the printing process lives
------------------
     ethr =  1.00E-02,  avg # of iterations =  4.3

     Threshold (ethr) on eigenvalues was too large:
     Diagonalizing with lowered threshold

     Davidson diagonalization with overlap

---- Real-time Memory Report at c_bands before calling an iterative solver
           232 MiB given to the printing process from OS
             0 MiB allocation reported by mallinfo(arena+hblkhd)
        252489 MiB available memory on the node where the printing process lives
------------------
     ethr =  9.46E-04,  avg # of iterations =  1.4

     negative rho (up, down):  4.579E-04 0.000E+00

     total cpu time spent up to now is       29.4 secs

     total energy              =    -120.08861591 Ry
     estimated scf accuracy    <       0.20546634 Ry

     iteration #  2     ecut=   500.00 Ry     beta= 0.70
     Davidson diagonalization with overlap

---- Real-time Memory Report at c_bands before calling an iterative solver
           292 MiB given to the printing process from OS
             0 MiB allocation reported by mallinfo(arena+hblkhd)
        252177 MiB available memory on the node where the printing process lives
------------------
     ethr =  9.34E-04,  avg # of iterations =  2.1

     negative rho (up, down):  2.533E-04 0.000E+00

     total cpu time spent up to now is       40.9 secs

     total energy              =    -120.10162197 Ry
     estimated scf accuracy    <       0.10701717 Ry

     iteration #  3     ecut=   500.00 Ry     beta= 0.70
     Davidson diagonalization with overlap

---- Real-time Memory Report at c_bands before calling an iterative solver
           303 MiB given to the printing process from OS
             0 MiB allocation reported by mallinfo(arena+hblkhd)
        251712 MiB available memory on the node where the printing process lives
------------------
     ethr =  4.86E-04,  avg # of iterations =  3.6

     negative rho (up, down):  5.501E-05 0.000E+00

     total cpu time spent up to now is       55.8 secs

     total energy              =    -120.13143270 Ry
     estimated scf accuracy    <       0.01497399 Ry

     iteration #  4     ecut=   500.00 Ry     beta= 0.70
     Davidson diagonalization with overlap

---- Real-time Memory Report at c_bands before calling an iterative solver
           311 MiB given to the printing process from OS
             0 MiB allocation reported by mallinfo(arena+hblkhd)
        251679 MiB available memory on the node where the printing process lives
------------------
     ethr =  6.81E-05,  avg # of iterations =  4.4

     negative rho (up, down):  9.708E-06 0.000E+00

     total cpu time spent up to now is       77.5 secs

     total energy              =    -120.13393281 Ry
     estimated scf accuracy    <       0.00012494 Ry

     iteration #  5     ecut=   500.00 Ry     beta= 0.70
     Davidson diagonalization with overlap

---- Real-time Memory Report at c_bands before calling an iterative solver
           319 MiB given to the printing process from OS
             0 MiB allocation reported by mallinfo(arena+hblkhd)
        251800 MiB available memory on the node where the printing process lives
------------------
     ethr =  5.68E-07,  avg # of iterations =  5.4

     negative rho (up, down):  5.477E-06 0.000E+00

     total cpu time spent up to now is      104.1 secs

     total energy              =    -120.13396905 Ry
     estimated scf accuracy    <       0.00000530 Ry

     iteration #  6     ecut=   500.00 Ry     beta= 0.70
     Davidson diagonalization with overlap

---- Real-time Memory Report at c_bands before calling an iterative solver
           328 MiB given to the printing process from OS
             0 MiB allocation reported by mallinfo(arena+hblkhd)
        251559 MiB available memory on the node where the printing process lives
------------------
     ethr =  2.41E-08,  avg # of iterations =  2.0

     negative rho (up, down):  5.444E-06 0.000E+00

     total cpu time spent up to now is      120.3 secs

     total energy              =    -120.13396964 Ry
     estimated scf accuracy    <       0.00000030 Ry

     iteration #  7     ecut=   500.00 Ry     beta= 0.70
     Davidson diagonalization with overlap

---- Real-time Memory Report at c_bands before calling an iterative solver
           336 MiB given to the printing process from OS
             0 MiB allocation reported by mallinfo(arena+hblkhd)
        251841 MiB available memory on the node where the printing process lives
------------------
     ethr =  1.36E-09,  avg # of iterations =  2.1

     negative rho (up, down):  5.449E-06 0.000E+00

     total cpu time spent up to now is      135.5 secs

     total energy              =    -120.13396973 Ry
     estimated scf accuracy    <       0.00000004 Ry

     iteration #  8     ecut=   500.00 Ry     beta= 0.70
     Davidson diagonalization with overlap

---- Real-time Memory Report at c_bands before calling an iterative solver
           345 MiB given to the printing process from OS
             0 MiB allocation reported by mallinfo(arena+hblkhd)
        252335 MiB available memory on the node where the printing process lives
------------------
     ethr =  1.94E-10,  avg # of iterations =  2.0

     negative rho (up, down):  5.452E-06 0.000E+00

     total cpu time spent up to now is      146.7 secs

     total energy              =    -120.13396974 Ry
     estimated scf accuracy    <          5.1E-11 Ry

     iteration #  9     ecut=   500.00 Ry     beta= 0.70
     Davidson diagonalization with overlap

---- Real-time Memory Report at c_bands before calling an iterative solver
           353 MiB given to the printing process from OS
             0 MiB allocation reported by mallinfo(arena+hblkhd)
        250132 MiB available memory on the node where the printing process lives
------------------
     ethr =  2.32E-13,  avg # of iterations =  5.0

     negative rho (up, down):  5.452E-06 0.000E+00

     total cpu time spent up to now is      166.5 secs

     total energy              =    -120.13396974 Ry
     estimated scf accuracy    <          4.2E-11 Ry

     iteration # 10     ecut=   500.00 Ry     beta= 0.70
     Davidson diagonalization with overlap

---- Real-time Memory Report at c_bands before calling an iterative solver
           362 MiB given to the printing process from OS
             0 MiB allocation reported by mallinfo(arena+hblkhd)
        247957 MiB available memory on the node where the printing process lives
------------------
     ethr =  1.93E-13,  avg # of iterations =  2.0

     negative rho (up, down):  5.453E-06 0.000E+00

     total cpu time spent up to now is      178.9 secs

     End of self-consistent calculation

          k = 0.0000 0.0000 0.0000 (138771 PWs)   bands (ev):

   -29.3979 -28.9021 -20.1873 -12.8238  -9.8420  -8.0991  -8.0991  -6.9221
    -6.9221  -3.9524  -3.9524  -0.8107   3.4098   3.4098   3.5914

     occupation numbers 
     1.0000   1.0000   1.0000   1.0000   1.0000   1.0000   1.0000   1.0000
     1.0000   1.0000   1.0000   0.0000   0.0000   0.0000   0.0000

          k = 0.0000 0.1925 0.0000 (138653 PWs)   bands (ev):

   -29.1683 -28.7395 -19.7611 -12.6183 -10.1327  -9.6515  -8.6421  -7.3649
    -7.0244  -5.3485  -4.4649   0.2321   3.5750   4.3883   4.7573

     occupation numbers 
     1.0000   1.0000   1.0000   1.0000   1.0000   1.0000   1.0000   1.0000
     1.0000   1.0000   1.0000   0.0000   0.0000   0.0000   0.0000

          k = 0.0000 0.3849 0.0000 (138490 PWs)   bands (ev):

   -28.6638 -28.4071 -18.4923 -13.3492 -11.8012 -10.4602  -9.5837  -8.1013
    -7.2610  -7.1933  -5.1007   1.1692   4.1227   5.8539   7.6679

     occupation numbers 
     1.0000   1.0000   1.0000   1.0000   1.0000   1.0000   1.0000   1.0000
     1.0000   1.0000   1.0000   0.0000   0.0000   0.0000   0.0000

          k = 0.0000-0.5774 0.0000 (138392 PWs)   bands (ev):

   -28.3661 -28.2563 -16.7675 -15.7967 -11.5963 -10.7870  -9.9987  -8.4312
    -7.9199  -7.3835  -5.3319   1.4628   4.6817   4.9217   8.7301

     occupation numbers 
     1.0000   1.0000   1.0000   1.0000   1.0000   1.0000   1.0000   1.0000
     1.0000   1.0000   1.0000   0.0000   0.0000   0.0000   0.0000

          k = 0.1667 0.2887 0.0000 (138589 PWs)   bands (ev):

   -28.7992 -28.4899 -18.9115 -12.5404 -11.3250 -10.7195  -9.6628  -7.6758
    -7.6577  -6.3713  -5.4196   1.6073   4.8353   5.7733   5.8550

     occupation numbers 
     1.0000   1.0000   1.0000   1.0000   1.0000   1.0000   1.0000   1.0000
     1.0000   1.0000   1.0000   0.0000   0.0000   0.0000   0.0000

          k = 0.1667 0.4811 0.0000 (138462 PWs)   bands (ev):

   -28.3819 -28.2488 -17.2418 -14.5749 -11.7900 -11.1410 -10.5160  -8.4905
    -7.7831  -7.3082  -6.0046   3.0016   5.4669   5.5085   7.7551

     occupation numbers 
     1.0000   1.0000   1.0000   1.0000   1.0000   1.0000   1.0000   1.0000
     1.0000   1.0000   1.0000   0.0000   0.0000   0.0000   0.0000

          k = 0.3333 0.5774 0.0000 (138462 PWs)   bands (ev):

   -28.2047 -28.2047 -15.5325 -15.5325 -13.1917 -10.9156 -10.9156  -8.8360
    -7.5001  -7.5001  -6.8614   4.8188   4.8188   7.0289   8.4942

     occupation numbers 
     1.0000   1.0000   1.0000   1.0000   1.0000   1.0000   1.0000   1.0000
     1.0000   1.0000   1.0000   0.0000   0.0000   0.0000   0.0000

     the Fermi energy is    -3.1339 ev

!    total energy              =    -120.13396974 Ry
     estimated scf accuracy    <          5.4E-13 Ry
     smearing contrib. (-TS)   =       0.00000000 Ry
     internal energy E=F+TS    =    -120.13396974 Ry

     The total energy is F=E-TS. E is the sum of the following terms:
     one-electron contribution =    -975.19916750 Ry
     hartree contribution      =     493.36183976 Ry
     xc contribution           =     -25.85886831 Ry
     ewald contribution        =     387.56222630 Ry

     convergence has been achieved in  10 iterations

     negative rho (up, down):  5.453E-06 0.000E+00

     Forces acting on atoms (cartesian axes, Ry/au):

     atom    1 type  1   force =     0.00000000    0.00000000    0.00005502
     atom    2 type  1   force =    -0.00000000   -0.00000000   -0.00005502
     atom    3 type  2   force =     0.00000000    0.00000000   -0.00004437
     atom    4 type  2   force =     0.00000000   -0.00000000    0.00004437
     The non-local contrib.  to forces
     atom    1 type  1   force =    -0.00000000   -0.00000000   -0.39639170
     atom    2 type  1   force =     0.00000000    0.00000000    0.39639170
     atom    3 type  2   force =     0.00000000    0.00000000    2.50664447
     atom    4 type  2   force =     0.00000000    0.00000000   -2.50664447
     The ionic contribution  to forces
     atom    1 type  1   force =    -0.00000001    0.00000000   -1.16488099
     atom    2 type  1   force =     0.00000001   -0.00000000    1.16488099
     atom    3 type  2   force =    -0.00000000    0.00000000  -48.74159951
     atom    4 type  2   force =     0.00000000   -0.00000000   48.74159951
     The local contribution  to forces
     atom    1 type  1   force =    -0.00000000    0.00000001    1.55817286
     atom    2 type  1   force =     0.00000001   -0.00000000   -1.55817284
     atom    3 type  2   force =    -0.00000000    0.00000007   46.23490723
     atom    4 type  2   force =     0.00000016   -0.00000003  -46.23490725
     The core correction contribution to forces
     atom    1 type  1   force =    -0.00000000   -0.00000000    0.00315464
     atom    2 type  1   force =    -0.00000000    0.00000000   -0.00315464
     atom    3 type  2   force =     0.00000000    0.00000000    0.00000000
     atom    4 type  2   force =     0.00000000    0.00000000    0.00000000
     The Hubbard contrib.    to forces
     atom    1 type  1   force =     0.00000000    0.00000000    0.00000000
     atom    2 type  1   force =     0.00000000    0.00000000    0.00000000
     atom    3 type  2   force =     0.00000000    0.00000000    0.00000000
     atom    4 type  2   force =     0.00000000    0.00000000    0.00000000
     The SCF correction term to forces
     atom    1 type  1   force =     0.00000000    0.00000000    0.00000022
     atom    2 type  1   force =     0.00000000   -0.00000000   -0.00000022
     atom    3 type  2   force =    -0.00000000   -0.00000000    0.00000342
     atom    4 type  2   force =     0.00000000   -0.00000000   -0.00000342

     Total force =     0.000100     Total SCF correction =     0.000005


     Computing stress (Cartesian axis) and pressure


     negative rho (up, down):  5.453E-06 0.000E+00
          total   stress  (Ry/bohr**3)                   (kbar)     P=        0.16
   0.00000150   0.00000000   0.00000000            0.22        0.00        0.00
   0.00000000   0.00000150   0.00000000            0.00        0.22        0.00
   0.00000000   0.00000000   0.00000017            0.00        0.00        0.03

     kinetic stress (kbar)   6756.87      0.00      0.00
                                0.00   6756.87     -0.00
                                0.00     -0.00   6005.50

     local   stress (kbar)-188576.56      0.00     -0.00
                                0.00-188576.56      0.00
                               -0.00      0.00 183501.27

     nonloc. stress (kbar)    871.97     -0.00      0.00
                               -0.00    871.97      0.00
                                0.00      0.00    676.58

     hartree stress (kbar)  94250.19     -0.00     -0.00
                               -0.00  94250.19     -0.00
                               -0.00     -0.00 -89587.14

     exc-cor stress (kbar)  -1583.36     -0.00      0.00
                               -0.00  -1583.36     -0.00
                                0.00     -0.00  -1573.11

     corecor stress (kbar)    -54.54      0.00     -0.00
                                0.00    -54.54      0.00
                               -0.00      0.00    -53.44

     ewald   stress (kbar)  88335.65     -0.00      0.00
                               -0.00  88335.65     -0.00
                                0.00     -0.00 -98969.63

     hubbard stress (kbar)      0.00      0.00      0.00
                                0.00      0.00      0.00
                                0.00      0.00      0.00

     DFT-D   stress (kbar)      0.00      0.00      0.00
                                0.00      0.00      0.00
                                0.00      0.00      0.00

     XDM     stress (kbar)      0.00      0.00      0.00
                                0.00      0.00      0.00
                                0.00      0.00      0.00

     dft-nl  stress (kbar)      0.00      0.00      0.00
                                0.00      0.00      0.00
                                0.00      0.00      0.00

     TS-vdW  stress (kbar)      0.00      0.00      0.00
                                0.00      0.00      0.00
                                0.00      0.00      0.00

     MDB     stress (kbar)      0.00      0.00      0.00
                                0.00      0.00      0.00
                                0.00      0.00      0.00

     3D-RISM stress (kbar)      0.00      0.00      0.00
                                0.00      0.00      0.00
                                0.00      0.00      0.00


     Writing all to output data dir ../tmp/fgc.save/

     init_run     :      3.71s CPU      5.50s WALL (       1 calls)
     electrons    :    130.98s CPU    173.52s WALL (       1 calls)
     forces       :      2.73s CPU      4.58s WALL (       1 calls)
     stress       :      4.11s CPU      6.83s WALL (       1 calls)

     Called by init_run:
     wfcinit      :      1.55s CPU      2.74s WALL (       1 calls)
     wfcinit:atom :      0.01s CPU      0.03s WALL (       2 calls)
     wfcinit:wfcr :      1.46s CPU      2.44s WALL (       2 calls)
     potinit      :      0.82s CPU      0.90s WALL (       1 calls)
     hinit0       :      0.86s CPU      0.89s WALL (       1 calls)

     Called by electrons:
     c_bands      :    104.87s CPU    136.58s WALL (      11 calls)
     sum_band     :     17.17s CPU     23.99s WALL (      11 calls)
     v_of_rho     :      3.96s CPU      4.16s WALL (      11 calls)
     v_h          :      0.32s CPU      0.33s WALL (      11 calls)
     v_xc         :      4.28s CPU      4.53s WALL (      13 calls)
     newd         :      3.42s CPU      7.47s WALL (      11 calls)
     mix_rho      :      0.59s CPU      0.75s WALL (      11 calls)

     Called by c_bands:
     init_us_2    :      0.46s CPU      0.60s WALL (      50 calls)
     init_us_2:cp :      0.46s CPU      0.60s WALL (      50 calls)
     cegterg      :     95.23s CPU    118.80s WALL (      22 calls)

     Called by sum_band:
     sum_band:wei :      0.31s CPU      0.34s WALL (      11 calls)
     sum_band:loo :     12.83s CPU     16.30s WALL (      11 calls)
     sum_band:buf :      0.03s CPU      0.03s WALL (      22 calls)
     sum_band:ini :      0.18s CPU      0.22s WALL (      22 calls)
     sum_band:cal :      8.92s CPU     12.05s WALL (      22 calls)
     sum_band:bec :      0.00s CPU      0.00s WALL (      22 calls)
     addusdens    :      1.82s CPU      5.05s WALL (      11 calls)
     addusd:skk   :      0.01s CPU      0.08s WALL (      22 calls)
     addusd:dgemm :      0.68s CPU      2.27s WALL (      22 calls)
     addusd:qvan2 :      0.60s CPU      1.86s WALL (      22 calls)

     Called by *egterg:
     cdiaghg      :      5.90s CPU      7.13s WALL (     103 calls)
     cegterg:over :     16.98s CPU     18.03s WALL (      83 calls)
     cegterg:upda :      2.02s CPU      2.68s WALL (      83 calls)
     cegterg:last :      2.60s CPU      2.88s WALL (      51 calls)
     h_psi        :     55.09s CPU     72.87s WALL (     107 calls)
     s_psi        :      1.24s CPU      1.78s WALL (     107 calls)
     g_psi        :      0.10s CPU      0.06s WALL (      83 calls)

     Called by h_psi:
     h_psi:calbec :     29.33s CPU     36.03s WALL (     107 calls)
     vloc_psi     :     22.96s CPU     31.92s WALL (     107 calls)
     add_vuspsi   :      2.71s CPU      4.77s WALL (     107 calls)

     General routines
     calbec       :     39.86s CPU     51.12s WALL (     139 calls)
     fft          :      3.21s CPU      3.63s WALL (     147 calls)
     ffts         :      0.87s CPU      0.87s WALL (      11 calls)
     fftw         :     23.56s CPU     32.26s WALL (    2200 calls)

     Parallel routines

     PWSCF        :   2m21.72s CPU   3m11.27s WALL


   This run was terminated on:   5:12:55  24Feb2024            

=------------------------------------------------------------------------------=
   JOB DONE.
=------------------------------------------------------------------------------=
