
     Program PWSCF v.7.1 starts on 24Feb2024 at  5:33:49 

     This program is part of the open-source Quantum ESPRESSO suite
     for quantum simulation of materials; please cite
         "P. Giannozzi et al., J. Phys.:Condens. Matter 21 395502 (2009);
         "P. Giannozzi et al., J. Phys.:Condens. Matter 29 465901 (2017);
         "P. Giannozzi et al., J. Chem. Phys. 152 154105 (2020);
          URL http://www.quantum-espresso.org", 
     in publications or presentations arising from this work. More details at
     http://www.quantum-espresso.org/quote

     Parallel version (MPI), running on    24 processors

     MPI processes distributed on     1 nodes
     253943 MiB available memory on the printing compute node when the environment starts

     Reading input from kpoint.18.in

     Current dimensions of program PWSCF are:
     Max number of different atomic species (ntypx) = 10
     Max number of k-points (npk) =  40000
     Max angular momentum in pseudopotentials (lmaxx) =  4

     K-points division:     npool     =       6
     R & G space division:  proc/nbgrp/npool/nimage =       4
     Subspace diagonalization in iterative solution of the eigenvalue problem:
     a serial algorithm will be used


     Parallelization info
     --------------------
     sticks:   dense  smooth     PW     G-vecs:    dense   smooth      PW
     Min         832     832    228               276984   276984   38734
     Max         833     833    229               277001   277001   38747
     Sum        3331    3331    913              1107983  1107983  154963

     Using Slab Decomposition



     bravais-lattice index     =            4
     lattice parameter (alat)  =       4.9229  a.u.
     unit-cell volume          =     733.7343 (a.u.)^3
     number of atoms/cell      =            4
     number of atomic types    =            2
     number of electrons       =        22.00
     number of Kohn-Sham states=           15
     kinetic-energy cutoff     =     500.0000  Ry
     charge density cutoff     =    2000.0000  Ry
     scf convergence threshold =      1.0E-12
     mixing beta               =       0.7000
     number of iterations used =            8  plain     mixing
     Exchange-correlation=  SLA  PW   PBX  PBC
                           (   1   4   3   4   0   0   0)

     celldm(1)=   4.922852  celldm(2)=   0.000000  celldm(3)=   7.101627
     celldm(4)=   0.000000  celldm(5)=   0.000000  celldm(6)=   0.000000

     crystal axes: (cart. coord. in units of alat)
               a(1) = (   1.000000   0.000000   0.000000 )  
               a(2) = (  -0.500000   0.866025   0.000000 )  
               a(3) = (   0.000000   0.000000   7.101627 )  

     reciprocal axes: (cart. coord. in units 2 pi/alat)
               b(1) = (  1.000000  0.577350 -0.000000 )  
               b(2) = (  0.000000  1.154701  0.000000 )  
               b(3) = (  0.000000 -0.000000  0.140813 )  


     PseudoPot. # 1 for C  read from file:
     ../pseudo/c_pbe_v1.2.uspp.F.UPF
     MD5 check sum: d1aef80898a10debaa0f26306b886e00
     Pseudo is Ultrasoft + core correction, Zval =  4.0
     Generated by new atomic code, or converted to UPF format
     Using radial grid of  721 points,  4 beta functions with: 
                l(1) =   0
                l(2) =   0
                l(3) =   1
                l(4) =   1
     Q(r) pseudized with  8 coefficients,  rinner =    1.100   1.100   1.100


     PseudoPot. # 2 for F  read from file:
     ../pseudo/f_pbe_v1.4.uspp.F.UPF
     MD5 check sum: 4c38b6a325caf53ec0e86aed9459de46
     Pseudo is Ultrasoft, Zval =  7.0
     Generated by new atomic code, or converted to UPF format
     Using radial grid of  799 points,  4 beta functions with: 
                l(1) =   0
                l(2) =   0
                l(3) =   1
                l(4) =   1
     Q(r) pseudized with  8 coefficients,  rinner =    0.950   0.950   0.950


     atomic species   valence    mass     pseudopotential
        C              4.00    12.01070     C ( 1.00)
        F              7.00    18.99840     F ( 1.00)

     12 Sym. Ops., with inversion, found ( 8 have fractional translation)


                                    s                        frac. trans.

      isym =  1     identity                                     

 cryst.   s( 1) = (     1          0          0      )
                  (     0          1          0      )
                  (     0          0          1      )

 cart.    s( 1) = (  1.0000000  0.0000000  0.0000000 )
                  (  0.0000000  1.0000000  0.0000000 )
                  (  0.0000000  0.0000000  1.0000000 )


      isym =  2     180 deg rotation - cart. axis [1,0,0]        

 cryst.   s( 2) = (     1          0          0      )
                  (    -1         -1          0      )
                  (     0          0         -1      )

 cart.    s( 2) = (  1.0000000  0.0000000  0.0000000 )
                  (  0.0000000 -1.0000000  0.0000000 )
                  (  0.0000000  0.0000000 -1.0000000 )


      isym =  3     120 deg rotation - cryst. axis [0,0,1]       

 cryst.   s( 3) = (     0          1          0      )    f =( -0.5000000 )
                  (    -1         -1          0      )       ( -0.5000000 )
                  (     0          0          1      )       (  0.0000000 )

 cart.    s( 3) = ( -0.5000000 -0.8660254  0.0000000 )    f =( -0.2500000 )
                  (  0.8660254 -0.5000000  0.0000000 )       ( -0.4330127 )
                  (  0.0000000  0.0000000  1.0000000 )       (  0.0000000 )


      isym =  4     120 deg rotation - cryst. axis [0,0,-1]      

 cryst.   s( 4) = (    -1         -1          0      )    f =(  0.0000000 )
                  (     1          0          0      )       ( -0.5000000 )
                  (     0          0          1      )       (  0.0000000 )

 cart.    s( 4) = ( -0.5000000  0.8660254  0.0000000 )    f =(  0.2500000 )
                  ( -0.8660254 -0.5000000  0.0000000 )       ( -0.4330127 )
                  (  0.0000000  0.0000000  1.0000000 )       (  0.0000000 )


      isym =  5     180 deg rotation - cryst. axis [0,1,0]       

 cryst.   s( 5) = (    -1         -1          0      )    f =(  0.0000000 )
                  (     0          1          0      )       ( -0.5000000 )
                  (     0          0         -1      )       (  0.0000000 )

 cart.    s( 5) = ( -0.5000000 -0.8660254  0.0000000 )    f =(  0.2500000 )
                  ( -0.8660254  0.5000000  0.0000000 )       ( -0.4330127 )
                  (  0.0000000  0.0000000 -1.0000000 )       (  0.0000000 )


      isym =  6     180 deg rotation - cryst. axis [1,1,0]       

 cryst.   s( 6) = (     0          1          0      )    f =(  0.5000000 )
                  (     1          0          0      )       (  0.5000000 )
                  (     0          0         -1      )       (  0.0000000 )

 cart.    s( 6) = ( -0.5000000  0.8660254  0.0000000 )    f =(  0.2500000 )
                  (  0.8660254  0.5000000  0.0000000 )       (  0.4330127 )
                  (  0.0000000  0.0000000 -1.0000000 )       (  0.0000000 )


      isym =  7     inversion                                    

 cryst.   s( 7) = (    -1          0          0      )
                  (     0         -1          0      )
                  (     0          0         -1      )

 cart.    s( 7) = ( -1.0000000  0.0000000  0.0000000 )
                  (  0.0000000 -1.0000000  0.0000000 )
                  (  0.0000000  0.0000000 -1.0000000 )


      isym =  8     inv. 180 deg rotation - cart. axis [1,0,0]   

 cryst.   s( 8) = (    -1          0          0      )
                  (     1          1          0      )
                  (     0          0          1      )

 cart.    s( 8) = ( -1.0000000  0.0000000  0.0000000 )
                  (  0.0000000  1.0000000  0.0000000 )
                  (  0.0000000  0.0000000  1.0000000 )


      isym =  9     inv. 120 deg rotation - cryst. axis [0,0,1]  

 cryst.   s( 9) = (     0         -1          0      )    f =(  0.5000000 )
                  (     1          1          0      )       ( -0.5000000 )
                  (     0          0         -1      )       (  0.0000000 )

 cart.    s( 9) = (  0.5000000  0.8660254  0.0000000 )    f =(  0.7500000 )
                  ( -0.8660254  0.5000000  0.0000000 )       ( -0.4330127 )
                  (  0.0000000  0.0000000 -1.0000000 )       (  0.0000000 )


      isym = 10     inv. 120 deg rotation - cryst. axis [0,0,-1] 

 cryst.   s(10) = (     1          1          0      )    f =(  0.0000000 )
                  (    -1          0          0      )       (  0.5000000 )
                  (     0          0         -1      )       (  0.0000000 )

 cart.    s(10) = (  0.5000000 -0.8660254  0.0000000 )    f =( -0.2500000 )
                  (  0.8660254  0.5000000  0.0000000 )       (  0.4330127 )
                  (  0.0000000  0.0000000 -1.0000000 )       (  0.0000000 )


      isym = 11     inv. 180 deg rotation - cryst. axis [0,1,0]  

 cryst.   s(11) = (     1          1          0      )    f =(  0.0000000 )
                  (     0         -1          0      )       ( -0.5000000 )
                  (     0          0          1      )       (  0.0000000 )

 cart.    s(11) = (  0.5000000  0.8660254  0.0000000 )    f =(  0.2500000 )
                  (  0.8660254 -0.5000000  0.0000000 )       ( -0.4330127 )
                  (  0.0000000  0.0000000  1.0000000 )       (  0.0000000 )


      isym = 12     inv. 180 deg rotation - cryst. axis [1,1,0]  

 cryst.   s(12) = (     0         -1          0      )    f =( -0.5000000 )
                  (    -1          0          0      )       ( -0.5000000 )
                  (     0          0          1      )       (  0.0000000 )

 cart.    s(12) = (  0.5000000 -0.8660254  0.0000000 )    f =( -0.2500000 )
                  ( -0.8660254 -0.5000000  0.0000000 )       ( -0.4330127 )
                  (  0.0000000  0.0000000  1.0000000 )       (  0.0000000 )


     point group D_3d (-3m) 
     there are  6 classes
     the character table:

       E     2C3   3C2'  i     2S6   3s_d 
A_1g   1.00  1.00  1.00  1.00  1.00  1.00
A_2g   1.00  1.00 -1.00  1.00  1.00 -1.00
E_g    2.00 -1.00  0.00  2.00 -1.00  0.00
A_1u   1.00  1.00  1.00 -1.00 -1.00 -1.00
A_2u   1.00  1.00 -1.00 -1.00 -1.00  1.00
E_u    2.00 -1.00  0.00 -2.00  1.00  0.00

     the symmetry operations in each class and the name of the first element:

     E        1
          identity                                               
     2C3      3    4
          120 deg rotation - cryst. axis [0,0,1]                 
     3C2'     2    5    6
          180 deg rotation - cart. axis [1,0,0]                  
     i        7
          inversion                                              
     2S6      9   10
          inv. 120 deg rotation - cryst. axis [0,0,1]            
     3s_d     8   11   12
          inv. 180 deg rotation - cart. axis [1,0,0]             

   Cartesian axes

     site n.     atom                  positions (alat units)
         1           C   tau(   1) = (   0.5000000   0.5773503  -0.0938017  )
         2           C   tau(   2) = (  -0.0000000   0.2886751   0.0938017  )
         3           F   tau(   3) = (   0.5000000   0.5773503  -0.6235043  )
         4           F   tau(   4) = (  -0.0000000   0.2886751   0.6235043  )

   Crystallographic axes

     site n.     atom                  positions (cryst. coord.)
         1           C   tau(   1) = (  0.8333333  0.6666667 -0.0132085  )
         2           C   tau(   2) = (  0.1666667  0.3333333  0.0132085  )
         3           F   tau(   3) = (  0.8333333  0.6666667 -0.0877974  )
         4           F   tau(   4) = (  0.1666667  0.3333333  0.0877974  )

     number of k points=    37  Marzari-Vanderbilt smearing, width (Ry)=  0.0010
                       cart. coord. in units 2pi/alat
        k(    1) = (   0.0000000   0.0000000   0.0000000), wk =   0.0061728
        k(    2) = (   0.0000000   0.0641500   0.0000000), wk =   0.0370370
        k(    3) = (   0.0000000   0.1283001   0.0000000), wk =   0.0370370
        k(    4) = (   0.0000000   0.1924501   0.0000000), wk =   0.0370370
        k(    5) = (   0.0000000   0.2566001   0.0000000), wk =   0.0370370
        k(    6) = (   0.0000000   0.3207501   0.0000000), wk =   0.0370370
        k(    7) = (   0.0000000   0.3849002   0.0000000), wk =   0.0370370
        k(    8) = (   0.0000000   0.4490502   0.0000000), wk =   0.0370370
        k(    9) = (   0.0000000   0.5132002   0.0000000), wk =   0.0370370
        k(   10) = (   0.0000000  -0.5773503   0.0000000), wk =   0.0185185
        k(   11) = (   0.0555556   0.0962250   0.0000000), wk =   0.0370370
        k(   12) = (   0.0555556   0.1603751   0.0000000), wk =   0.0740741
        k(   13) = (   0.0555556   0.2245251   0.0000000), wk =   0.0740741
        k(   14) = (   0.0555556   0.2886751   0.0000000), wk =   0.0740741
        k(   15) = (   0.0555556   0.3528252   0.0000000), wk =   0.0740741
        k(   16) = (   0.0555556   0.4169752   0.0000000), wk =   0.0740741
        k(   17) = (   0.0555556   0.4811252   0.0000000), wk =   0.0740741
        k(   18) = (   0.0555556   0.5452753   0.0000000), wk =   0.0740741
        k(   19) = (   0.1111111   0.1924501   0.0000000), wk =   0.0370370
        k(   20) = (   0.1111111   0.2566001   0.0000000), wk =   0.0740741
        k(   21) = (   0.1111111   0.3207501   0.0000000), wk =   0.0740741
        k(   22) = (   0.1111111   0.3849002   0.0000000), wk =   0.0740741
        k(   23) = (   0.1111111   0.4490502   0.0000000), wk =   0.0740741
        k(   24) = (   0.1111111   0.5132002   0.0000000), wk =   0.0740741
        k(   25) = (   0.1111111   0.5773503   0.0000000), wk =   0.0370370
        k(   26) = (   0.1666667   0.2886751   0.0000000), wk =   0.0370370
        k(   27) = (   0.1666667   0.3528252   0.0000000), wk =   0.0740741
        k(   28) = (   0.1666667   0.4169752   0.0000000), wk =   0.0740741
        k(   29) = (   0.1666667   0.4811252   0.0000000), wk =   0.0740741
        k(   30) = (   0.1666667   0.5452753   0.0000000), wk =   0.0740741
        k(   31) = (   0.2222222   0.3849002   0.0000000), wk =   0.0370370
        k(   32) = (   0.2222222   0.4490502   0.0000000), wk =   0.0740741
        k(   33) = (   0.2222222   0.5132002   0.0000000), wk =   0.0740741
        k(   34) = (   0.2222222   0.5773503   0.0000000), wk =   0.0370370
        k(   35) = (   0.2777778   0.4811252   0.0000000), wk =   0.0370370
        k(   36) = (   0.2777778   0.5452753   0.0000000), wk =   0.0740741
        k(   37) = (   0.3333333   0.5773503   0.0000000), wk =   0.0123457

                       cryst. coord.
        k(    1) = (   0.0000000   0.0000000   0.0000000), wk =   0.0061728
        k(    2) = (   0.0000000   0.0555556   0.0000000), wk =   0.0370370
        k(    3) = (   0.0000000   0.1111111   0.0000000), wk =   0.0370370
        k(    4) = (   0.0000000   0.1666667   0.0000000), wk =   0.0370370
        k(    5) = (   0.0000000   0.2222222   0.0000000), wk =   0.0370370
        k(    6) = (   0.0000000   0.2777778   0.0000000), wk =   0.0370370
        k(    7) = (   0.0000000   0.3333333   0.0000000), wk =   0.0370370
        k(    8) = (   0.0000000   0.3888889   0.0000000), wk =   0.0370370
        k(    9) = (   0.0000000   0.4444444   0.0000000), wk =   0.0370370
        k(   10) = (   0.0000000  -0.5000000   0.0000000), wk =   0.0185185
        k(   11) = (   0.0555556   0.0555556   0.0000000), wk =   0.0370370
        k(   12) = (   0.0555556   0.1111111   0.0000000), wk =   0.0740741
        k(   13) = (   0.0555556   0.1666667   0.0000000), wk =   0.0740741
        k(   14) = (   0.0555556   0.2222222   0.0000000), wk =   0.0740741
        k(   15) = (   0.0555556   0.2777778   0.0000000), wk =   0.0740741
        k(   16) = (   0.0555556   0.3333333   0.0000000), wk =   0.0740741
        k(   17) = (   0.0555556   0.3888889   0.0000000), wk =   0.0740741
        k(   18) = (   0.0555556   0.4444444   0.0000000), wk =   0.0740741
        k(   19) = (   0.1111111   0.1111111   0.0000000), wk =   0.0370370
        k(   20) = (   0.1111111   0.1666667   0.0000000), wk =   0.0740741
        k(   21) = (   0.1111111   0.2222222   0.0000000), wk =   0.0740741
        k(   22) = (   0.1111111   0.2777778   0.0000000), wk =   0.0740741
        k(   23) = (   0.1111111   0.3333333   0.0000000), wk =   0.0740741
        k(   24) = (   0.1111111   0.3888889   0.0000000), wk =   0.0740741
        k(   25) = (   0.1111111   0.4444444   0.0000000), wk =   0.0370370
        k(   26) = (   0.1666667   0.1666667   0.0000000), wk =   0.0370370
        k(   27) = (   0.1666667   0.2222222   0.0000000), wk =   0.0740741
        k(   28) = (   0.1666667   0.2777778   0.0000000), wk =   0.0740741
        k(   29) = (   0.1666667   0.3333333   0.0000000), wk =   0.0740741
        k(   30) = (   0.1666667   0.3888889   0.0000000), wk =   0.0740741
        k(   31) = (   0.2222222   0.2222222   0.0000000), wk =   0.0370370
        k(   32) = (   0.2222222   0.2777778   0.0000000), wk =   0.0740741
        k(   33) = (   0.2222222   0.3333333   0.0000000), wk =   0.0740741
        k(   34) = (   0.2222222   0.3888889   0.0000000), wk =   0.0370370
        k(   35) = (   0.2777778   0.2777778   0.0000000), wk =   0.0370370
        k(   36) = (   0.2777778   0.3333333   0.0000000), wk =   0.0740741
        k(   37) = (   0.3333333   0.3333333   0.0000000), wk =   0.0123457

     Dense  grid:  1107983 G-vectors     FFT dimensions: (  72,  72, 500)

     Dynamical RAM for                 wfc:       7.93 MB

     Dynamical RAM for     wfc (w. buffer):      63.41 MB

     Dynamical RAM for           str. fact:       8.45 MB

     Dynamical RAM for           local pot:       0.00 MB

     Dynamical RAM for          nlocal pot:      16.91 MB

     Dynamical RAM for                qrad:       2.05 MB

     Dynamical RAM for          rho,v,vnew:      27.51 MB

     Dynamical RAM for               rhoin:       9.17 MB

     Dynamical RAM for            rho*nmix:      67.63 MB

     Dynamical RAM for           G-vectors:      17.96 MB

     Dynamical RAM for          h,s,v(r/c):       0.04 MB

     Dynamical RAM for          <psi|beta>:       0.01 MB

     Dynamical RAM for                 psi:      15.85 MB

     Dynamical RAM for                hpsi:      15.85 MB

     Dynamical RAM for                spsi:      15.85 MB

     Dynamical RAM for      wfcinit/wfcrot:      16.92 MB

     Dynamical RAM for           addusdens:      35.22 MB

     Dynamical RAM for          addusforce:      35.22 MB

     Dynamical RAM for         addusstress:      36.98 MB

     Estimated static dynamical RAM per process >     182.87 MB

     Estimated max dynamical RAM per process >     298.11 MB

     Estimated total dynamical RAM >       5.67 GB

     Initial potential from superposition of free atoms

     starting charge      21.9999, renormalised to      22.0000

     negative rho (up, down):  1.602E-03 0.000E+00
     Starting wfcs are   16 randomized atomic wfcs

     total cpu time spent up to now is       16.4 secs

     Self-consistent Calculation

     iteration #  1     ecut=   500.00 Ry     beta= 0.70
     Davidson diagonalization with overlap

---- Real-time Memory Report at c_bands before calling an iterative solver
           219 MiB given to the printing process from OS
             0 MiB allocation reported by mallinfo(arena+hblkhd)
        249816 MiB available memory on the node where the printing process lives
------------------
     ethr =  1.00E-02,  avg # of iterations =  3.9

     Threshold (ethr) on eigenvalues was too large:
     Diagonalizing with lowered threshold

     Davidson diagonalization with overlap

---- Real-time Memory Report at c_bands before calling an iterative solver
           273 MiB given to the printing process from OS
             0 MiB allocation reported by mallinfo(arena+hblkhd)
        248218 MiB available memory on the node where the printing process lives
------------------
     ethr =  9.45E-04,  avg # of iterations =  1.7

     negative rho (up, down):  4.581E-04 0.000E+00

     total cpu time spent up to now is      130.6 secs

     total energy              =    -120.08891967 Ry
     estimated scf accuracy    <       0.20535196 Ry

     iteration #  2     ecut=   500.00 Ry     beta= 0.70
     Davidson diagonalization with overlap

---- Real-time Memory Report at c_bands before calling an iterative solver
           332 MiB given to the printing process from OS
             0 MiB allocation reported by mallinfo(arena+hblkhd)
        248027 MiB available memory on the node where the printing process lives
------------------
     ethr =  9.33E-04,  avg # of iterations =  2.1

     negative rho (up, down):  2.534E-04 0.000E+00

     total cpu time spent up to now is      179.9 secs

     total energy              =    -120.10206403 Ry
     estimated scf accuracy    <       0.10691217 Ry

     iteration #  3     ecut=   500.00 Ry     beta= 0.70
     Davidson diagonalization with overlap

---- Real-time Memory Report at c_bands before calling an iterative solver
           343 MiB given to the printing process from OS
             0 MiB allocation reported by mallinfo(arena+hblkhd)
        248356 MiB available memory on the node where the printing process lives
------------------
     ethr =  4.86E-04,  avg # of iterations =  3.6

     negative rho (up, down):  5.506E-05 0.000E+00

     total cpu time spent up to now is      244.2 secs

     total energy              =    -120.13179198 Ry
     estimated scf accuracy    <       0.01489907 Ry

     iteration #  4     ecut=   500.00 Ry     beta= 0.70
     Davidson diagonalization with overlap

---- Real-time Memory Report at c_bands before calling an iterative solver
           351 MiB given to the printing process from OS
             0 MiB allocation reported by mallinfo(arena+hblkhd)
        248630 MiB available memory on the node where the printing process lives
------------------
     ethr =  6.77E-05,  avg # of iterations =  4.8

     negative rho (up, down):  9.724E-06 0.000E+00

     total cpu time spent up to now is      319.2 secs

     total energy              =    -120.13427242 Ry
     estimated scf accuracy    <       0.00012662 Ry

     iteration #  5     ecut=   500.00 Ry     beta= 0.70
     Davidson diagonalization with overlap

---- Real-time Memory Report at c_bands before calling an iterative solver
           360 MiB given to the printing process from OS
             0 MiB allocation reported by mallinfo(arena+hblkhd)
        248940 MiB available memory on the node where the printing process lives
------------------
     ethr =  5.76E-07,  avg # of iterations =  6.7

     negative rho (up, down):  5.488E-06 0.000E+00

     total cpu time spent up to now is      419.8 secs

     total energy              =    -120.13431187 Ry
     estimated scf accuracy    <       0.00000674 Ry

     iteration #  6     ecut=   500.00 Ry     beta= 0.70
     Davidson diagonalization with overlap

---- Real-time Memory Report at c_bands before calling an iterative solver
           368 MiB given to the printing process from OS
             0 MiB allocation reported by mallinfo(arena+hblkhd)
        249619 MiB available memory on the node where the printing process lives
------------------
     ethr =  3.06E-08,  avg # of iterations =  2.0

     negative rho (up, down):  5.445E-06 0.000E+00

     total cpu time spent up to now is      465.9 secs

     total energy              =    -120.13431277 Ry
     estimated scf accuracy    <       0.00000025 Ry

     iteration #  7     ecut=   500.00 Ry     beta= 0.70
     Davidson diagonalization with overlap

---- Real-time Memory Report at c_bands before calling an iterative solver
           376 MiB given to the printing process from OS
             0 MiB allocation reported by mallinfo(arena+hblkhd)
        249879 MiB available memory on the node where the printing process lives
------------------
     ethr =  1.14E-09,  avg # of iterations =  2.6

     negative rho (up, down):  5.450E-06 0.000E+00

     total cpu time spent up to now is      519.7 secs

     total energy              =    -120.13431286 Ry
     estimated scf accuracy    <       0.00000005 Ry

     iteration #  8     ecut=   500.00 Ry     beta= 0.70
     Davidson diagonalization with overlap

---- Real-time Memory Report at c_bands before calling an iterative solver
           385 MiB given to the printing process from OS
             0 MiB allocation reported by mallinfo(arena+hblkhd)
        249845 MiB available memory on the node where the printing process lives
------------------
     ethr =  2.36E-10,  avg # of iterations =  2.0

     negative rho (up, down):  5.453E-06 0.000E+00

     total cpu time spent up to now is      564.6 secs

     total energy              =    -120.13431287 Ry
     estimated scf accuracy    <          1.5E-10 Ry

     iteration #  9     ecut=   500.00 Ry     beta= 0.70
     Davidson diagonalization with overlap

---- Real-time Memory Report at c_bands before calling an iterative solver
           393 MiB given to the printing process from OS
             0 MiB allocation reported by mallinfo(arena+hblkhd)
        249813 MiB available memory on the node where the printing process lives
------------------
     ethr =  6.88E-13,  avg # of iterations =  4.1

     negative rho (up, down):  5.454E-06 0.000E+00

     total cpu time spent up to now is      636.4 secs

     total energy              =    -120.13431287 Ry
     estimated scf accuracy    <          3.9E-11 Ry

     iteration # 10     ecut=   500.00 Ry     beta= 0.70
     Davidson diagonalization with overlap

---- Real-time Memory Report at c_bands before calling an iterative solver
           402 MiB given to the printing process from OS
             0 MiB allocation reported by mallinfo(arena+hblkhd)
        249771 MiB available memory on the node where the printing process lives
------------------
     ethr =  1.78E-13,  avg # of iterations =  2.0

     negative rho (up, down):  5.454E-06 0.000E+00

     total cpu time spent up to now is      683.5 secs

     total energy              =    -120.13431287 Ry
     estimated scf accuracy    <          1.6E-12 Ry

     iteration # 11     ecut=   500.00 Ry     beta= 0.70
     Davidson diagonalization with overlap

---- Real-time Memory Report at c_bands before calling an iterative solver
           402 MiB given to the printing process from OS
             0 MiB allocation reported by mallinfo(arena+hblkhd)
        250078 MiB available memory on the node where the printing process lives
------------------
     ethr =  1.00E-13,  avg # of iterations =  1.0

     negative rho (up, down):  5.454E-06 0.000E+00

     total cpu time spent up to now is      717.5 secs

     End of self-consistent calculation

          k = 0.0000 0.0000 0.0000 (138771 PWs)   bands (ev):

   -29.3982 -28.9023 -20.1882 -12.8244  -9.8425  -8.0997  -8.0997  -6.9220
    -6.9220  -3.9534  -3.9534  -0.8110   3.4083   3.4083   3.5914

     occupation numbers 
     1.0000   1.0000   1.0000   1.0000   1.0000   1.0000   1.0000   1.0000
     1.0000   1.0000   1.0000   0.0000   0.0000   0.0000   0.0000

          k = 0.0000 0.0642 0.0000 (138729 PWs)   bands (ev):

   -29.3712 -28.8829 -20.1407 -12.7988  -9.8647  -8.3134  -8.1685  -6.9764
    -6.9330  -4.1669  -4.0283  -0.6356   3.4304   3.6165   3.6914

     occupation numbers 
     1.0000   1.0000   1.0000   1.0000   1.0000   1.0000   1.0000   1.0000
     1.0000   1.0000   1.0000   0.0000   0.0000   0.0000   0.0000

          k = 0.0000 0.1283 0.0000 (138707 PWs)   bands (ev):

   -29.2923 -28.8267 -19.9985 -12.7258  -9.9388  -8.8931  -8.3612  -7.1335
    -6.9672  -4.6910  -4.2207  -0.2281   3.4871   3.9615   4.1912

     occupation numbers 
     1.0000   1.0000   1.0000   1.0000   1.0000   1.0000   1.0000   1.0000
     1.0000   1.0000   1.0000   0.0000   0.0000   0.0000   0.0000

          k = 0.0000 0.1925 0.0000 (138653 PWs)   bands (ev):

   -29.1686 -28.7397 -19.7620 -12.6189 -10.1332  -9.6522  -8.6429  -7.3649
    -7.0243  -5.3490  -4.4657   0.2316   3.5737   4.3882   4.7571

     occupation numbers 
     1.0000   1.0000   1.0000   1.0000   1.0000   1.0000   1.0000   1.0000
     1.0000   1.0000   1.0000   0.0000   0.0000   0.0000   0.0000

          k = 0.0000 0.2566 0.0000 (138608 PWs)   bands (ev):

   -29.0116 -28.6317 -19.4317 -12.5181 -10.8364 -10.0610  -8.9689  -7.6269
    -7.0991  -6.0283  -4.7105   0.6369   3.7096   4.9621   5.3957

     occupation numbers 
     1.0000   1.0000   1.0000   1.0000   1.0000   1.0000   1.0000   1.0000
     1.0000   1.0000   1.0000   0.0000   0.0000   0.0000   0.0000

          k = 0.0000 0.3208 0.0000 (138584 PWs)   bands (ev):

   -28.8370 -28.5157 -19.0083 -12.6183 -11.6214 -10.2681  -9.2952  -7.8806
    -7.1818  -6.6595  -4.9266   0.9471   3.9006   5.6008   6.1635

     occupation numbers 
     1.0000   1.0000   1.0000   1.0000   1.0000   1.0000   1.0000   1.0000
     1.0000   1.0000   1.0000   0.0000   0.0000   0.0000   0.0000

          k = 0.0000 0.3849 0.0000 (138490 PWs)   bands (ev):

   -28.6641 -28.4073 -18.4932 -13.3502 -11.8018 -10.4606  -9.5846  -8.1013
    -7.2610  -7.1935  -5.1013   1.1686   4.1215   5.8530   7.6661

     occupation numbers 
     1.0000   1.0000   1.0000   1.0000   1.0000   1.0000   1.0000   1.0000
     1.0000   1.0000   1.0000   0.0000   0.0000   0.0000   0.0000

          k = 0.0000 0.4491 0.0000 (138484 PWs)   bands (ev):

   -28.5135 -28.3219 -17.8913 -14.3248 -11.7191 -10.6282  -9.8095  -8.2755
    -7.5939  -7.3260  -5.2288   1.3248   4.3381   5.5277   8.2565

     occupation numbers 
     1.0000   1.0000   1.0000   1.0000   1.0000   1.0000   1.0000   1.0000
     1.0000   1.0000   1.0000   0.0000   0.0000   0.0000   0.0000

          k = 0.0000 0.5132 0.0000 (138408 PWs)   bands (ev):

   -28.4067 -28.2714 -17.2292 -15.2465 -11.6314 -10.7450  -9.9513  -8.3904
    -7.8384  -7.3686  -5.3063   1.4257   4.5380   5.1404   8.6111

     occupation numbers 
     1.0000   1.0000   1.0000   1.0000   1.0000   1.0000   1.0000   1.0000
     1.0000   1.0000   1.0000   0.0000   0.0000   0.0000   0.0000

          k = 0.0000-0.5774 0.0000 (138392 PWs)   bands (ev):

   -28.3663 -28.2565 -16.7686 -15.7978 -11.5968 -10.7874  -9.9997  -8.4313
    -7.9200  -7.3834  -5.3323   1.4621   4.6803   4.9207   8.7283

     occupation numbers 
     1.0000   1.0000   1.0000   1.0000   1.0000   1.0000   1.0000   1.0000
     1.0000   1.0000   1.0000   0.0000   0.0000   0.0000   0.0000

          k = 0.0556 0.0962 0.0000 (138719 PWs)   bands (ev):

   -29.3182 -28.8451 -20.0459 -12.7494  -9.9117  -8.7004  -8.3113  -7.0678
    -6.9694  -4.5167  -4.1786  -0.3434   3.5138   3.8791   3.9155

     occupation numbers 
     1.0000   1.0000   1.0000   1.0000   1.0000   1.0000   1.0000   1.0000
     1.0000   1.0000   1.0000   0.0000   0.0000   0.0000   0.0000

          k = 0.0556 0.1604 0.0000 (138686 PWs)   bands (ev):

   -29.2168 -28.7735 -19.8565 -12.6589 -10.0216  -9.3736  -8.5728  -7.2401
    -7.0383  -5.0695  -4.4279   0.1007   3.6446   4.2248   4.3936

     occupation numbers 
     1.0000   1.0000   1.0000   1.0000   1.0000   1.0000   1.0000   1.0000
     1.0000   1.0000   1.0000   0.0000   0.0000   0.0000   0.0000

          k = 0.0556 0.2245 0.0000 (138638 PWs)   bands (ev):

   -29.0764 -28.6758 -19.5731 -12.5503 -10.4127 -10.0020  -8.8974  -7.4783
    -7.1237  -5.7030  -4.6941   0.5589   3.7804   4.7232   5.0416

     occupation numbers 
     1.0000   1.0000   1.0000   1.0000   1.0000   1.0000   1.0000   1.0000
     1.0000   1.0000   1.0000   0.0000   0.0000   0.0000   0.0000

          k = 0.0556 0.2887 0.0000 (138633 PWs)   bands (ev):

   -28.9105 -28.5637 -19.1961 -12.5079 -11.2629 -10.2329  -9.2379  -7.7402
    -7.2235  -6.3245  -4.9338   0.9515   3.9464   5.3459   5.7922

     occupation numbers 
     1.0000   1.0000   1.0000   1.0000   1.0000   1.0000   1.0000   1.0000
     1.0000   1.0000   1.0000   0.0000   0.0000   0.0000   0.0000

          k = 0.0556 0.3528 0.0000 (138538 PWs)   bands (ev):

   -28.7364 -28.4512 -18.7264 -12.9085 -11.7588 -10.4225  -9.5595  -7.9882
    -7.3410  -6.8594  -5.1312   1.2546   4.1426   5.8681   6.6432

     occupation numbers 
     1.0000   1.0000   1.0000   1.0000   1.0000   1.0000   1.0000   1.0000
     1.0000   1.0000   1.0000   0.0000   0.0000   0.0000   0.0000

          k = 0.0556 0.4170 0.0000 (138484 PWs)   bands (ev):

   -28.5742 -28.3541 -18.1665 -13.8133 -11.7539 -10.5893  -9.8353  -8.1987
    -7.5167  -7.2124  -5.2813   1.4799   4.3434   5.7509   7.5898

     occupation numbers 
     1.0000   1.0000   1.0000   1.0000   1.0000   1.0000   1.0000   1.0000
     1.0000   1.0000   1.0000   0.0000   0.0000   0.0000   0.0000

          k = 0.0556 0.4811 0.0000 (138474 PWs)   bands (ev):

   -28.4445 -28.2864 -17.5276 -14.7720 -11.6653 -10.7112 -10.0405  -8.3549
    -7.7440  -7.3520  -5.3824   1.6414   4.5288   5.3494   8.3453

     occupation numbers 
     1.0000   1.0000   1.0000   1.0000   1.0000   1.0000   1.0000   1.0000
     1.0000   1.0000   1.0000   0.0000   0.0000   0.0000   0.0000

          k = 0.0556 0.5453 0.0000 (138400 PWs)   bands (ev):

   -28.3690 -28.2552 -16.8867 -15.5874 -11.6068 -10.7739 -10.1515  -8.4397
    -7.8810  -7.4012  -5.4333   1.7317   4.7016   5.0155   8.5679

     occupation numbers 
     1.0000   1.0000   1.0000   1.0000   1.0000   1.0000   1.0000   1.0000
     1.0000   1.0000   1.0000   0.0000   0.0000   0.0000   0.0000

          k = 0.1111 0.1925 0.0000 (138655 PWs)   bands (ev):

   -29.0987 -28.6911 -19.6202 -12.5642 -10.1645 -10.0514  -8.9114  -7.3695
    -7.1914  -5.5369  -4.7480   0.5649   3.9656   4.6668   4.7202

     occupation numbers 
     1.0000   1.0000   1.0000   1.0000   1.0000   1.0000   1.0000   1.0000
     1.0000   1.0000   1.0000   0.0000   0.0000   0.0000   0.0000

          k = 0.1111 0.2566 0.0000 (138613 PWs)   bands (ev):

   -28.9491 -28.5892 -19.2898 -12.4877 -10.8590 -10.3449  -9.2815  -7.5733
    -7.3545  -6.0435  -5.0574   1.0547   4.2542   5.2113   5.3813

     occupation numbers 
     1.0000   1.0000   1.0000   1.0000   1.0000   1.0000   1.0000   1.0000
     1.0000   1.0000   1.0000   0.0000   0.0000   0.0000   0.0000

          k = 0.1111 0.3208 0.0000 (138592 PWs)   bands (ev):

   -28.7833 -28.4800 -18.8660 -12.6226 -11.5426 -10.5481  -9.6325  -7.8409
    -7.4896  -6.5320  -5.3037   1.4953   4.4697   5.8068   6.2567

     occupation numbers 
     1.0000   1.0000   1.0000   1.0000   1.0000   1.0000   1.0000   1.0000
     1.0000   1.0000   1.0000   0.0000   0.0000   0.0000   0.0000

          k = 0.1111 0.3849 0.0000 (138527 PWs)   bands (ev):

   -28.6192 -28.3783 -18.3501 -13.3056 -11.7282 -10.7208  -9.9522  -8.1056
    -7.6100  -6.9450  -5.4863   1.8640   4.6435   5.9799   7.1876

     occupation numbers 
     1.0000   1.0000   1.0000   1.0000   1.0000   1.0000   1.0000   1.0000
     1.0000   1.0000   1.0000   0.0000   0.0000   0.0000   0.0000

          k = 0.1111 0.4491 0.0000 (138489 PWs)   bands (ev):

   -28.4767 -28.2987 -17.7477 -14.2286 -11.6900 -10.8169 -10.2346  -8.3218
    -7.7179  -7.2431  -5.6133   2.1638   4.7802   5.6220   7.8933

     occupation numbers 
     1.0000   1.0000   1.0000   1.0000   1.0000   1.0000   1.0000   1.0000
     1.0000   1.0000   1.0000   0.0000   0.0000   0.0000   0.0000

          k = 0.1111 0.5132 0.0000 (138392 PWs)   bands (ev):

   -28.3753 -28.2521 -17.0865 -15.1226 -11.6485 -10.8145 -10.4653  -8.4615
    -7.8027  -7.4116  -5.6887   2.3817   4.8844   5.2345   8.1873

     occupation numbers 
     1.0000   1.0000   1.0000   1.0000   1.0000   1.0000   1.0000   1.0000
     1.0000   1.0000   1.0000   0.0000   0.0000   0.0000   0.0000

          k = 0.1111 0.5774 0.0000 (138378 PWs)   bands (ev):

   -28.3368 -28.2388 -16.6287 -15.6629 -11.6358 -10.7685 -10.5851  -8.5095
    -7.8368  -7.4637  -5.7138   2.4667   4.9990   5.0002   8.2593

     occupation numbers 
     1.0000   1.0000   1.0000   1.0000   1.0000   1.0000   1.0000   1.0000
     1.0000   1.0000   1.0000   0.0000   0.0000   0.0000   0.0000

          k = 0.1667 0.2887 0.0000 (138589 PWs)   bands (ev):

   -28.7995 -28.4901 -18.9125 -12.5412 -11.3257 -10.7201  -9.6636  -7.6758
    -7.6577  -6.3715  -5.4201   1.6067   4.8339   5.7722   5.8547

     occupation numbers 
     1.0000   1.0000   1.0000   1.0000   1.0000   1.0000   1.0000   1.0000
     1.0000   1.0000   1.0000   0.0000   0.0000   0.0000   0.0000

          k = 0.1667 0.3528 0.0000 (138533 PWs)   bands (ev):

   -28.6432 -28.3914 -18.4418 -12.9552 -11.5887 -11.0481  -9.9881  -8.0058
    -7.7331  -6.7069  -5.6999   2.1288   5.2255   6.1626   6.5861

     occupation numbers 
     1.0000   1.0000   1.0000   1.0000   1.0000   1.0000   1.0000   1.0000
     1.0000   1.0000   1.0000   0.0000   0.0000   0.0000   0.0000

          k = 0.1667 0.4170 0.0000 (138480 PWs)   bands (ev):

   -28.4982 -28.3069 -17.8810 -13.7146 -11.6858 -11.1963 -10.2686  -8.2904
    -7.7780  -7.0320  -5.8887   2.5956   5.4054   5.9437   7.3763

     occupation numbers 
     1.0000   1.0000   1.0000   1.0000   1.0000   1.0000   1.0000   1.0000
     1.0000   1.0000   1.0000   0.0000   0.0000   0.0000   0.0000

          k = 0.1667 0.4811 0.0000 (138462 PWs)   bands (ev):

   -28.3822 -28.2491 -17.2428 -14.5760 -11.7908 -11.1417 -10.5165  -8.4905
    -7.7832  -7.3083  -6.0049   3.0009   5.4657   5.5071   7.7536

     occupation numbers 
     1.0000   1.0000   1.0000   1.0000   1.0000   1.0000   1.0000   1.0000
     1.0000   1.0000   1.0000   0.0000   0.0000   0.0000   0.0000

          k = 0.1667 0.5453 0.0000 (138457 PWs)   bands (ev):

   -28.3138 -28.2238 -16.6064 -15.3447 -11.8602 -11.0123 -10.7165  -8.5915
    -7.7508  -7.4927  -6.0608   3.2826   5.1253   5.5302   7.8339

     occupation numbers 
     1.0000   1.0000   1.0000   1.0000   1.0000   1.0000   1.0000   1.0000
     1.0000   1.0000   1.0000   0.0000   0.0000   0.0000   0.0000

          k = 0.2222 0.3849 0.0000 (138481 PWs)   bands (ev):

   -28.5057 -28.3098 -17.9255 -13.4686 -11.6289 -11.4808 -10.2561  -8.2754
    -7.8147  -6.9055  -6.0348   2.7369   5.8171   6.5546   6.6835

     occupation numbers 
     1.0000   1.0000   1.0000   1.0000   1.0000   1.0000   1.0000   1.0000
     1.0000   1.0000   1.0000   0.0000   0.0000   0.0000   0.0000

          k = 0.2222 0.4491 0.0000 (138472 PWs)   bands (ev):

   -28.3865 -28.2472 -17.3245 -14.1294 -12.0795 -11.3322 -10.4766  -8.5139
    -7.8074  -7.1406  -6.2651   3.2856   5.7088   6.5311   7.3849

     occupation numbers 
     1.0000   1.0000   1.0000   1.0000   1.0000   1.0000   1.0000   1.0000
     1.0000   1.0000   1.0000   0.0000   0.0000   0.0000   0.0000

          k = 0.2222 0.5132 0.0000 (138484 PWs)   bands (ev):

   -28.3007 -28.2128 -16.6691 -14.8655 -12.3423 -11.1697 -10.6666  -8.6638
    -7.7341  -7.3807  -6.3916   3.7597   5.3444   6.4889   7.4542

     occupation numbers 
     1.0000   1.0000   1.0000   1.0000   1.0000   1.0000   1.0000   1.0000
     1.0000   1.0000   1.0000   0.0000   0.0000   0.0000   0.0000

          k = 0.2222 0.5774 0.0000 (138474 PWs)   bands (ev):

   -28.2666 -28.2048 -16.2133 -15.3576 -12.4257 -11.0733 -10.7708  -8.7140
    -7.6207  -7.5561  -6.4313   4.0019   5.1160   6.4779   7.4311

     occupation numbers 
     1.0000   1.0000   1.0000   1.0000   1.0000   1.0000   1.0000   1.0000
     1.0000   1.0000   1.0000   0.0000   0.0000   0.0000   0.0000

          k = 0.2778 0.4811 0.0000 (138512 PWs)   bands (ev):

   -28.2965 -28.2087 -16.6976 -14.6038 -12.6288 -11.1982 -10.6437  -8.6938
    -7.7443  -7.2757  -6.5580   3.8833   5.4604   7.2157   7.7520

     occupation numbers 
     1.0000   1.0000   1.0000   1.0000   1.0000   1.0000   1.0000   1.0000
     1.0000   1.0000   1.0000   0.0000   0.0000   0.0000   0.0000

          k = 0.2778 0.5453 0.0000 (138487 PWs)   bands (ev):

   -28.2400 -28.1965 -16.0695 -15.1492 -12.9370 -11.0524 -10.7880  -8.7900
    -7.6151  -7.4405  -6.7149   4.3598   5.1384   7.1460   7.6537

     occupation numbers 
     1.0000   1.0000   1.0000   1.0000   1.0000   1.0000   1.0000   1.0000
     1.0000   1.0000   1.0000   0.0000   0.0000   0.0000   0.0000

          k = 0.3333 0.5774 0.0000 (138462 PWs)   bands (ev):

   -28.2049 -28.2049 -15.5335 -15.5335 -13.1928 -10.9161 -10.9161  -8.8360
    -7.5002  -7.5002  -6.8615   4.8177   4.8177   7.0277   8.4926

     occupation numbers 
     1.0000   1.0000   1.0000   1.0000   1.0000   1.0000   1.0000   1.0000
     1.0000   1.0000   1.0000   0.0000   0.0000   0.0000   0.0000

     the Fermi energy is    -3.1353 ev

!    total energy              =    -120.13431287 Ry
     estimated scf accuracy    <          1.5E-13 Ry
     smearing contrib. (-TS)   =       0.00000000 Ry
     internal energy E=F+TS    =    -120.13431287 Ry

     The total energy is F=E-TS. E is the sum of the following terms:
     one-electron contribution =    -975.19910688 Ry
     hartree contribution      =     493.36102803 Ry
     xc contribution           =     -25.85846032 Ry
     ewald contribution        =     387.56222630 Ry

     convergence has been achieved in  11 iterations

     negative rho (up, down):  5.454E-06 0.000E+00

     Forces acting on atoms (cartesian axes, Ry/au):

     atom    1 type  1   force =     0.00000000    0.00000000   -0.00034262
     atom    2 type  1   force =    -0.00000000   -0.00000000    0.00034262
     atom    3 type  2   force =     0.00000000    0.00000000    0.00003308
     atom    4 type  2   force =     0.00000000   -0.00000000   -0.00003308
     The non-local contrib.  to forces
     atom    1 type  1   force =    -0.00000000    0.00000000   -0.39808802
     atom    2 type  1   force =    -0.00000000   -0.00000000    0.39808802
     atom    3 type  2   force =     0.00000000    0.00000000    2.50680121
     atom    4 type  2   force =     0.00000000   -0.00000000   -2.50680121
     The ionic contribution  to forces
     atom    1 type  1   force =    -0.00000001    0.00000000   -1.16488099
     atom    2 type  1   force =     0.00000001   -0.00000000    1.16488099
     atom    3 type  2   force =    -0.00000000    0.00000000  -48.74159951
     atom    4 type  2   force =     0.00000000   -0.00000000   48.74159951
     The local contribution  to forces
     atom    1 type  1   force =    -0.00000000    0.00000001    1.55945566
     atom    2 type  1   force =     0.00000001   -0.00000000   -1.55945565
     atom    3 type  2   force =    -0.00000000    0.00000007   46.23483022
     atom    4 type  2   force =     0.00000016   -0.00000003  -46.23483024
     The core correction contribution to forces
     atom    1 type  1   force =    -0.00000000   -0.00000000    0.00317054
     atom    2 type  1   force =    -0.00000000    0.00000000   -0.00317054
     atom    3 type  2   force =     0.00000000    0.00000000    0.00000000
     atom    4 type  2   force =     0.00000000    0.00000000    0.00000000
     The Hubbard contrib.    to forces
     atom    1 type  1   force =     0.00000000    0.00000000    0.00000000
     atom    2 type  1   force =     0.00000000    0.00000000    0.00000000
     atom    3 type  2   force =     0.00000000    0.00000000    0.00000000
     atom    4 type  2   force =     0.00000000    0.00000000    0.00000000
     The SCF correction term to forces
     atom    1 type  1   force =    -0.00000000    0.00000000    0.00000020
     atom    2 type  1   force =     0.00000000    0.00000000   -0.00000020
     atom    3 type  2   force =    -0.00000000   -0.00000000    0.00000116
     atom    4 type  2   force =     0.00000000   -0.00000000   -0.00000116

     Total force =     0.000487     Total SCF correction =     0.000002


     Computing stress (Cartesian axis) and pressure


     negative rho (up, down):  5.454E-06 0.000E+00
          total   stress  (Ry/bohr**3)                   (kbar)     P=        0.10
   0.00000099   0.00000000   0.00000000            0.14        0.00        0.00
   0.00000000   0.00000099   0.00000000            0.00        0.14        0.00
  -0.00000000  -0.00000000   0.00000002           -0.00       -0.00        0.00

     kinetic stress (kbar)   6756.37      0.00      0.00
                                0.00   6756.37      0.00
                                0.00      0.00   6005.58

     local   stress (kbar)-188576.43      0.00     -0.00
                                0.00-188576.43      0.00
                               -0.00      0.00 183501.22

     nonloc. stress (kbar)    872.15     -0.00      0.00
                               -0.00    872.15      0.00
                                0.00      0.00    676.83

     hartree stress (kbar)  94250.27     -0.00      0.00
                               -0.00  94250.27     -0.00
                                0.00     -0.00 -89587.47

     exc-cor stress (kbar)  -1583.33     -0.00      0.00
                               -0.00  -1583.33     -0.00
                                0.00     -0.00  -1573.09

     corecor stress (kbar)    -54.54      0.00     -0.00
                                0.00    -54.54      0.00
                               -0.00      0.00    -53.44

     ewald   stress (kbar)  88335.65     -0.00      0.00
                               -0.00  88335.65     -0.00
                                0.00     -0.00 -98969.63

     hubbard stress (kbar)      0.00      0.00      0.00
                                0.00      0.00      0.00
                                0.00      0.00      0.00

     DFT-D   stress (kbar)      0.00      0.00      0.00
                                0.00      0.00      0.00
                                0.00      0.00      0.00

     XDM     stress (kbar)      0.00      0.00      0.00
                                0.00      0.00      0.00
                                0.00      0.00      0.00

     dft-nl  stress (kbar)      0.00      0.00      0.00
                                0.00      0.00      0.00
                                0.00      0.00      0.00

     TS-vdW  stress (kbar)      0.00      0.00      0.00
                                0.00      0.00      0.00
                                0.00      0.00      0.00

     MDB     stress (kbar)      0.00      0.00      0.00
                                0.00      0.00      0.00
                                0.00      0.00      0.00

     3D-RISM stress (kbar)      0.00      0.00      0.00
                                0.00      0.00      0.00
                                0.00      0.00      0.00


     Writing all to output data dir ../tmp/fgc.save/

     init_run     :     10.01s CPU     16.29s WALL (       1 calls)
     electrons    :    421.63s CPU    701.31s WALL (       1 calls)
     forces       :      5.26s CPU      9.89s WALL (       1 calls)
     stress       :      7.40s CPU     14.77s WALL (       1 calls)

     Called by init_run:
     wfcinit      :      7.80s CPU     13.48s WALL (       1 calls)
     wfcinit:atom :      0.10s CPU      0.13s WALL (       7 calls)
     wfcinit:wfcr :      7.31s CPU     12.79s WALL (       7 calls)
     potinit      :      0.82s CPU      0.92s WALL (       1 calls)
     hinit0       :      0.85s CPU      0.89s WALL (       1 calls)

     Called by electrons:
     c_bands      :    365.98s CPU    614.76s WALL (      12 calls)
     sum_band     :     46.19s CPU     72.45s WALL (      12 calls)
     v_of_rho     :      4.23s CPU      4.50s WALL (      12 calls)
     v_h          :      0.36s CPU      0.38s WALL (      12 calls)
     v_xc         :      4.47s CPU      4.79s WALL (      14 calls)
     newd         :      3.38s CPU      8.06s WALL (      12 calls)
     mix_rho      :      0.85s CPU      1.01s WALL (      12 calls)

     Called by c_bands:
     init_us_2    :      1.89s CPU      2.67s WALL (     189 calls)
     init_us_2:cp :      1.89s CPU      2.67s WALL (     189 calls)
     cegterg      :    301.77s CPU    502.36s WALL (      84 calls)

     Called by sum_band:
     sum_band:wei :      0.41s CPU      0.45s WALL (      12 calls)
     sum_band:loo :     42.07s CPU     64.53s WALL (      12 calls)
     sum_band:buf :      0.19s CPU      0.24s WALL (      84 calls)
     sum_band:ini :      1.02s CPU      1.33s WALL (      84 calls)
     sum_band:cal :     16.96s CPU     26.37s WALL (      84 calls)
     sum_band:bec :      0.00s CPU      0.00s WALL (      84 calls)
     addusdens    :      1.75s CPU      5.50s WALL (      12 calls)
     addusd:skk   :      0.01s CPU      0.01s WALL (      24 calls)
     addusd:dgemm :      0.68s CPU      2.44s WALL (      24 calls)
     addusd:qvan2 :      0.67s CPU      2.07s WALL (      24 calls)

     Called by *egterg:
     cdiaghg      :     22.06s CPU     36.67s WALL (     368 calls)
     cegterg:over :     53.44s CPU     77.08s WALL (     291 calls)
     cegterg:upda :      6.26s CPU     12.40s WALL (     291 calls)
     cegterg:last :      7.41s CPU     10.89s WALL (     180 calls)
     h_psi        :    173.76s CPU    300.83s WALL (     382 calls)
     s_psi        :      4.47s CPU      5.92s WALL (     382 calls)
     g_psi        :      0.29s CPU      0.22s WALL (     291 calls)

     Called by h_psi:
     h_psi:calbec :     53.23s CPU     89.76s WALL (     382 calls)
     vloc_psi     :    111.47s CPU    193.11s WALL (     382 calls)
     add_vuspsi   :      8.75s CPU     17.39s WALL (     382 calls)

     General routines
     calbec       :     75.79s CPU    127.69s WALL (     501 calls)
     fft          :      3.40s CPU      3.87s WALL (     158 calls)
     ffts         :      0.45s CPU      0.46s WALL (      12 calls)
     fftw         :    122.63s CPU    211.62s WALL (    8128 calls)

     Parallel routines

     PWSCF        :   7m24.58s CPU  12m23.96s WALL


   This run was terminated on:   5:46:13  24Feb2024            

=------------------------------------------------------------------------------=
   JOB DONE.
=------------------------------------------------------------------------------=
