
     Program PWSCF v.7.1 starts on 24Feb2024 at  5: 7:43 

     This program is part of the open-source Quantum ESPRESSO suite
     for quantum simulation of materials; please cite
         "P. Giannozzi et al., J. Phys.:Condens. Matter 21 395502 (2009);
         "P. Giannozzi et al., J. Phys.:Condens. Matter 29 465901 (2017);
         "P. Giannozzi et al., J. Chem. Phys. 152 154105 (2020);
          URL http://www.quantum-espresso.org", 
     in publications or presentations arising from this work. More details at
     http://www.quantum-espresso.org/quote

     Parallel version (MPI), running on    24 processors

     MPI processes distributed on     1 nodes
     255207 MiB available memory on the printing compute node when the environment starts

     Reading input from kpoint.4.in

     Current dimensions of program PWSCF are:
     Max number of different atomic species (ntypx) = 10
     Max number of k-points (npk) =  40000
     Max angular momentum in pseudopotentials (lmaxx) =  4

     K-points division:     npool     =       6
     R & G space division:  proc/nbgrp/npool/nimage =       4
     Subspace diagonalization in iterative solution of the eigenvalue problem:
     a serial algorithm will be used

     Message from routine divide_et_impera:
     suboptimal parallelization: some nodes have no k-points

     Parallelization info
     --------------------
     sticks:   dense  smooth     PW     G-vecs:    dense   smooth      PW
     Min         832     832    222               276984   276984   38096
     Max         833     833    223               277001   277001   38115
     Sum        3331    3331    889              1107983  1107983  152417

     Using Slab Decomposition



     bravais-lattice index     =            4
     lattice parameter (alat)  =       4.9229  a.u.
     unit-cell volume          =     733.7343 (a.u.)^3
     number of atoms/cell      =            4
     number of atomic types    =            2
     number of electrons       =        22.00
     number of Kohn-Sham states=           15
     kinetic-energy cutoff     =     500.0000  Ry
     charge density cutoff     =    2000.0000  Ry
     scf convergence threshold =      1.0E-12
     mixing beta               =       0.7000
     number of iterations used =            8  plain     mixing
     Exchange-correlation=  SLA  PW   PBX  PBC
                           (   1   4   3   4   0   0   0)

     celldm(1)=   4.922852  celldm(2)=   0.000000  celldm(3)=   7.101627
     celldm(4)=   0.000000  celldm(5)=   0.000000  celldm(6)=   0.000000

     crystal axes: (cart. coord. in units of alat)
               a(1) = (   1.000000   0.000000   0.000000 )  
               a(2) = (  -0.500000   0.866025   0.000000 )  
               a(3) = (   0.000000   0.000000   7.101627 )  

     reciprocal axes: (cart. coord. in units 2 pi/alat)
               b(1) = (  1.000000  0.577350 -0.000000 )  
               b(2) = (  0.000000  1.154701  0.000000 )  
               b(3) = (  0.000000 -0.000000  0.140813 )  


     PseudoPot. # 1 for C  read from file:
     ../pseudo/c_pbe_v1.2.uspp.F.UPF
     MD5 check sum: d1aef80898a10debaa0f26306b886e00
     Pseudo is Ultrasoft + core correction, Zval =  4.0
     Generated by new atomic code, or converted to UPF format
     Using radial grid of  721 points,  4 beta functions with: 
                l(1) =   0
                l(2) =   0
                l(3) =   1
                l(4) =   1
     Q(r) pseudized with  8 coefficients,  rinner =    1.100   1.100   1.100


     PseudoPot. # 2 for F  read from file:
     ../pseudo/f_pbe_v1.4.uspp.F.UPF
     MD5 check sum: 4c38b6a325caf53ec0e86aed9459de46
     Pseudo is Ultrasoft, Zval =  7.0
     Generated by new atomic code, or converted to UPF format
     Using radial grid of  799 points,  4 beta functions with: 
                l(1) =   0
                l(2) =   0
                l(3) =   1
                l(4) =   1
     Q(r) pseudized with  8 coefficients,  rinner =    0.950   0.950   0.950


     atomic species   valence    mass     pseudopotential
        C              4.00    12.01070     C ( 1.00)
        F              7.00    18.99840     F ( 1.00)

     12 Sym. Ops., with inversion, found ( 8 have fractional translation)


                                    s                        frac. trans.

      isym =  1     identity                                     

 cryst.   s( 1) = (     1          0          0      )
                  (     0          1          0      )
                  (     0          0          1      )

 cart.    s( 1) = (  1.0000000  0.0000000  0.0000000 )
                  (  0.0000000  1.0000000  0.0000000 )
                  (  0.0000000  0.0000000  1.0000000 )


      isym =  2     180 deg rotation - cart. axis [1,0,0]        

 cryst.   s( 2) = (     1          0          0      )
                  (    -1         -1          0      )
                  (     0          0         -1      )

 cart.    s( 2) = (  1.0000000  0.0000000  0.0000000 )
                  (  0.0000000 -1.0000000  0.0000000 )
                  (  0.0000000  0.0000000 -1.0000000 )


      isym =  3     120 deg rotation - cryst. axis [0,0,1]       

 cryst.   s( 3) = (     0          1          0      )    f =( -0.5000000 )
                  (    -1         -1          0      )       ( -0.5000000 )
                  (     0          0          1      )       (  0.0000000 )

 cart.    s( 3) = ( -0.5000000 -0.8660254  0.0000000 )    f =( -0.2500000 )
                  (  0.8660254 -0.5000000  0.0000000 )       ( -0.4330127 )
                  (  0.0000000  0.0000000  1.0000000 )       (  0.0000000 )


      isym =  4     120 deg rotation - cryst. axis [0,0,-1]      

 cryst.   s( 4) = (    -1         -1          0      )    f =(  0.0000000 )
                  (     1          0          0      )       ( -0.5000000 )
                  (     0          0          1      )       (  0.0000000 )

 cart.    s( 4) = ( -0.5000000  0.8660254  0.0000000 )    f =(  0.2500000 )
                  ( -0.8660254 -0.5000000  0.0000000 )       ( -0.4330127 )
                  (  0.0000000  0.0000000  1.0000000 )       (  0.0000000 )


      isym =  5     180 deg rotation - cryst. axis [0,1,0]       

 cryst.   s( 5) = (    -1         -1          0      )    f =(  0.0000000 )
                  (     0          1          0      )       ( -0.5000000 )
                  (     0          0         -1      )       (  0.0000000 )

 cart.    s( 5) = ( -0.5000000 -0.8660254  0.0000000 )    f =(  0.2500000 )
                  ( -0.8660254  0.5000000  0.0000000 )       ( -0.4330127 )
                  (  0.0000000  0.0000000 -1.0000000 )       (  0.0000000 )


      isym =  6     180 deg rotation - cryst. axis [1,1,0]       

 cryst.   s( 6) = (     0          1          0      )    f =(  0.5000000 )
                  (     1          0          0      )       (  0.5000000 )
                  (     0          0         -1      )       (  0.0000000 )

 cart.    s( 6) = ( -0.5000000  0.8660254  0.0000000 )    f =(  0.2500000 )
                  (  0.8660254  0.5000000  0.0000000 )       (  0.4330127 )
                  (  0.0000000  0.0000000 -1.0000000 )       (  0.0000000 )


      isym =  7     inversion                                    

 cryst.   s( 7) = (    -1          0          0      )
                  (     0         -1          0      )
                  (     0          0         -1      )

 cart.    s( 7) = ( -1.0000000  0.0000000  0.0000000 )
                  (  0.0000000 -1.0000000  0.0000000 )
                  (  0.0000000  0.0000000 -1.0000000 )


      isym =  8     inv. 180 deg rotation - cart. axis [1,0,0]   

 cryst.   s( 8) = (    -1          0          0      )
                  (     1          1          0      )
                  (     0          0          1      )

 cart.    s( 8) = ( -1.0000000  0.0000000  0.0000000 )
                  (  0.0000000  1.0000000  0.0000000 )
                  (  0.0000000  0.0000000  1.0000000 )


      isym =  9     inv. 120 deg rotation - cryst. axis [0,0,1]  

 cryst.   s( 9) = (     0         -1          0      )    f =(  0.5000000 )
                  (     1          1          0      )       ( -0.5000000 )
                  (     0          0         -1      )       (  0.0000000 )

 cart.    s( 9) = (  0.5000000  0.8660254  0.0000000 )    f =(  0.7500000 )
                  ( -0.8660254  0.5000000  0.0000000 )       ( -0.4330127 )
                  (  0.0000000  0.0000000 -1.0000000 )       (  0.0000000 )


      isym = 10     inv. 120 deg rotation - cryst. axis [0,0,-1] 

 cryst.   s(10) = (     1          1          0      )    f =(  0.0000000 )
                  (    -1          0          0      )       (  0.5000000 )
                  (     0          0         -1      )       (  0.0000000 )

 cart.    s(10) = (  0.5000000 -0.8660254  0.0000000 )    f =( -0.2500000 )
                  (  0.8660254  0.5000000  0.0000000 )       (  0.4330127 )
                  (  0.0000000  0.0000000 -1.0000000 )       (  0.0000000 )


      isym = 11     inv. 180 deg rotation - cryst. axis [0,1,0]  

 cryst.   s(11) = (     1          1          0      )    f =(  0.0000000 )
                  (     0         -1          0      )       ( -0.5000000 )
                  (     0          0          1      )       (  0.0000000 )

 cart.    s(11) = (  0.5000000  0.8660254  0.0000000 )    f =(  0.2500000 )
                  (  0.8660254 -0.5000000  0.0000000 )       ( -0.4330127 )
                  (  0.0000000  0.0000000  1.0000000 )       (  0.0000000 )


      isym = 12     inv. 180 deg rotation - cryst. axis [1,1,0]  

 cryst.   s(12) = (     0         -1          0      )    f =( -0.5000000 )
                  (    -1          0          0      )       ( -0.5000000 )
                  (     0          0          1      )       (  0.0000000 )

 cart.    s(12) = (  0.5000000 -0.8660254  0.0000000 )    f =( -0.2500000 )
                  ( -0.8660254 -0.5000000  0.0000000 )       ( -0.4330127 )
                  (  0.0000000  0.0000000  1.0000000 )       (  0.0000000 )


     point group D_3d (-3m) 
     there are  6 classes
     the character table:

       E     2C3   3C2'  i     2S6   3s_d 
A_1g   1.00  1.00  1.00  1.00  1.00  1.00
A_2g   1.00  1.00 -1.00  1.00  1.00 -1.00
E_g    2.00 -1.00  0.00  2.00 -1.00  0.00
A_1u   1.00  1.00  1.00 -1.00 -1.00 -1.00
A_2u   1.00  1.00 -1.00 -1.00 -1.00  1.00
E_u    2.00 -1.00  0.00 -2.00  1.00  0.00

     the symmetry operations in each class and the name of the first element:

     E        1
          identity                                               
     2C3      3    4
          120 deg rotation - cryst. axis [0,0,1]                 
     3C2'     2    5    6
          180 deg rotation - cart. axis [1,0,0]                  
     i        7
          inversion                                              
     2S6      9   10
          inv. 120 deg rotation - cryst. axis [0,0,1]            
     3s_d     8   11   12
          inv. 180 deg rotation - cart. axis [1,0,0]             

   Cartesian axes

     site n.     atom                  positions (alat units)
         1           C   tau(   1) = (   0.5000000   0.5773503  -0.0938017  )
         2           C   tau(   2) = (  -0.0000000   0.2886751   0.0938017  )
         3           F   tau(   3) = (   0.5000000   0.5773503  -0.6235043  )
         4           F   tau(   4) = (  -0.0000000   0.2886751   0.6235043  )

   Crystallographic axes

     site n.     atom                  positions (cryst. coord.)
         1           C   tau(   1) = (  0.8333333  0.6666667 -0.0132085  )
         2           C   tau(   2) = (  0.1666667  0.3333333  0.0132085  )
         3           F   tau(   3) = (  0.8333333  0.6666667 -0.0877974  )
         4           F   tau(   4) = (  0.1666667  0.3333333  0.0877974  )

     number of k points=     4  Marzari-Vanderbilt smearing, width (Ry)=  0.0010
                       cart. coord. in units 2pi/alat
        k(    1) = (   0.0000000   0.0000000   0.0000000), wk =   0.1250000
        k(    2) = (   0.0000000   0.2886751   0.0000000), wk =   0.7500000
        k(    3) = (   0.0000000  -0.5773503   0.0000000), wk =   0.3750000
        k(    4) = (   0.2500000   0.4330127   0.0000000), wk =   0.7500000

                       cryst. coord.
        k(    1) = (   0.0000000   0.0000000   0.0000000), wk =   0.1250000
        k(    2) = (   0.0000000   0.2500000   0.0000000), wk =   0.7500000
        k(    3) = (   0.0000000  -0.5000000   0.0000000), wk =   0.3750000
        k(    4) = (   0.2500000   0.2500000   0.0000000), wk =   0.7500000

     Dense  grid:  1107983 G-vectors     FFT dimensions: (  72,  72, 500)

     Dynamical RAM for                 wfc:       7.93 MB

     Dynamical RAM for     wfc (w. buffer):       7.93 MB

     Dynamical RAM for           str. fact:       8.45 MB

     Dynamical RAM for           local pot:       0.00 MB

     Dynamical RAM for          nlocal pot:      16.91 MB

     Dynamical RAM for                qrad:       2.05 MB

     Dynamical RAM for          rho,v,vnew:      27.51 MB

     Dynamical RAM for               rhoin:       9.17 MB

     Dynamical RAM for            rho*nmix:      67.63 MB

     Dynamical RAM for           G-vectors:      17.96 MB

     Dynamical RAM for          h,s,v(r/c):       0.04 MB

     Dynamical RAM for          <psi|beta>:       0.01 MB

     Dynamical RAM for                 psi:      15.85 MB

     Dynamical RAM for                hpsi:      15.85 MB

     Dynamical RAM for                spsi:      15.85 MB

     Dynamical RAM for      wfcinit/wfcrot:      16.92 MB

     Dynamical RAM for           addusdens:      35.22 MB

     Dynamical RAM for          addusforce:      35.22 MB

     Dynamical RAM for         addusstress:      36.98 MB

     Estimated static dynamical RAM per process >     127.38 MB

     Estimated max dynamical RAM per process >     242.62 MB

     Estimated total dynamical RAM >       4.37 GB

     Initial potential from superposition of free atoms

     starting charge      21.9999, renormalised to      22.0000

     negative rho (up, down):  1.602E-03 0.000E+00
     Starting wfcs are   16 randomized atomic wfcs

     total cpu time spent up to now is        4.6 secs

     Self-consistent Calculation

     iteration #  1     ecut=   500.00 Ry     beta= 0.70
     Davidson diagonalization with overlap

---- Real-time Memory Report at c_bands before calling an iterative solver
           206 MiB given to the printing process from OS
             0 MiB allocation reported by mallinfo(arena+hblkhd)
        251487 MiB available memory on the node where the printing process lives
------------------
     ethr =  1.00E-02,  avg # of iterations =  5.0

     Threshold (ethr) on eigenvalues was too large:
     Diagonalizing with lowered threshold

     Davidson diagonalization with overlap

---- Real-time Memory Report at c_bands before calling an iterative solver
           223 MiB given to the printing process from OS
             0 MiB allocation reported by mallinfo(arena+hblkhd)
        250219 MiB available memory on the node where the printing process lives
------------------
     ethr =  9.57E-04,  avg # of iterations =  1.0

     negative rho (up, down):  4.580E-04 0.000E+00

     total cpu time spent up to now is       22.4 secs

     total energy              =    -120.08440035 Ry
     estimated scf accuracy    <       0.20702111 Ry

     iteration #  2     ecut=   500.00 Ry     beta= 0.70
     Davidson diagonalization with overlap

---- Real-time Memory Report at c_bands before calling an iterative solver
           279 MiB given to the printing process from OS
             0 MiB allocation reported by mallinfo(arena+hblkhd)
        250250 MiB available memory on the node where the printing process lives
------------------
     ethr =  9.41E-04,  avg # of iterations =  2.0

     negative rho (up, down):  2.523E-04 0.000E+00

     total cpu time spent up to now is       29.3 secs

     total energy              =    -120.09823485 Ry
     estimated scf accuracy    <       0.10517714 Ry

     iteration #  3     ecut=   500.00 Ry     beta= 0.70
     Davidson diagonalization with overlap

---- Real-time Memory Report at c_bands before calling an iterative solver
           287 MiB given to the printing process from OS
             0 MiB allocation reported by mallinfo(arena+hblkhd)
        250686 MiB available memory on the node where the printing process lives
------------------
     ethr =  4.78E-04,  avg # of iterations =  2.0

     negative rho (up, down):  5.501E-05 0.000E+00

     total cpu time spent up to now is       36.5 secs

     total energy              =    -120.12748735 Ry
     estimated scf accuracy    <       0.01451042 Ry

     iteration #  4     ecut=   500.00 Ry     beta= 0.70
     Davidson diagonalization with overlap

---- Real-time Memory Report at c_bands before calling an iterative solver
           296 MiB given to the printing process from OS
             0 MiB allocation reported by mallinfo(arena+hblkhd)
        249721 MiB available memory on the node where the printing process lives
------------------
     ethr =  6.60E-05,  avg # of iterations =  5.5

     negative rho (up, down):  9.774E-06 0.000E+00

     total cpu time spent up to now is       50.1 secs

     total energy              =    -120.12986999 Ry
     estimated scf accuracy    <       0.00012759 Ry

     iteration #  5     ecut=   500.00 Ry     beta= 0.70
     Davidson diagonalization with overlap

---- Real-time Memory Report at c_bands before calling an iterative solver
           304 MiB given to the printing process from OS
             0 MiB allocation reported by mallinfo(arena+hblkhd)
        250400 MiB available memory on the node where the printing process lives
------------------
     ethr =  5.80E-07,  avg # of iterations = 10.0

     negative rho (up, down):  5.507E-06 0.000E+00

     total cpu time spent up to now is       67.5 secs

     total energy              =    -120.12990220 Ry
     estimated scf accuracy    <       0.00000539 Ry

     iteration #  6     ecut=   500.00 Ry     beta= 0.70
     Davidson diagonalization with overlap

---- Real-time Memory Report at c_bands before calling an iterative solver
           313 MiB given to the printing process from OS
             0 MiB allocation reported by mallinfo(arena+hblkhd)
        250310 MiB available memory on the node where the printing process lives
------------------
     ethr =  2.45E-08,  avg # of iterations =  2.0

     negative rho (up, down):  5.448E-06 0.000E+00

     total cpu time spent up to now is       74.4 secs

     total energy              =    -120.12990283 Ry
     estimated scf accuracy    <       0.00000026 Ry

     iteration #  7     ecut=   500.00 Ry     beta= 0.70
     Davidson diagonalization with overlap

---- Real-time Memory Report at c_bands before calling an iterative solver
           321 MiB given to the printing process from OS
             0 MiB allocation reported by mallinfo(arena+hblkhd)
        251306 MiB available memory on the node where the printing process lives
------------------
     ethr =  1.19E-09,  avg # of iterations =  2.5

     negative rho (up, down):  5.454E-06 0.000E+00

     total cpu time spent up to now is       82.0 secs

     total energy              =    -120.12990291 Ry
     estimated scf accuracy    <       0.00000005 Ry

     iteration #  8     ecut=   500.00 Ry     beta= 0.70
     Davidson diagonalization with overlap

---- Real-time Memory Report at c_bands before calling an iterative solver
           330 MiB given to the printing process from OS
             0 MiB allocation reported by mallinfo(arena+hblkhd)
        251318 MiB available memory on the node where the printing process lives
------------------
     ethr =  2.36E-10,  avg # of iterations =  2.0

     negative rho (up, down):  5.457E-06 0.000E+00

     total cpu time spent up to now is       89.0 secs

     total energy              =    -120.12990292 Ry
     estimated scf accuracy    <          1.3E-10 Ry

     iteration #  9     ecut=   500.00 Ry     beta= 0.70
     Davidson diagonalization with overlap

---- Real-time Memory Report at c_bands before calling an iterative solver
           338 MiB given to the printing process from OS
             0 MiB allocation reported by mallinfo(arena+hblkhd)
        251220 MiB available memory on the node where the printing process lives
------------------
     ethr =  5.89E-13,  avg # of iterations =  4.2

     negative rho (up, down):  5.457E-06 0.000E+00

     total cpu time spent up to now is       98.7 secs

     total energy              =    -120.12990292 Ry
     estimated scf accuracy    <          5.0E-11 Ry

     iteration # 10     ecut=   500.00 Ry     beta= 0.70
     Davidson diagonalization with overlap

---- Real-time Memory Report at c_bands before calling an iterative solver
           347 MiB given to the printing process from OS
             0 MiB allocation reported by mallinfo(arena+hblkhd)
        251580 MiB available memory on the node where the printing process lives
------------------
     ethr =  2.26E-13,  avg # of iterations =  2.0

     negative rho (up, down):  5.458E-06 0.000E+00

     total cpu time spent up to now is      105.6 secs

     End of self-consistent calculation

          k = 0.0000 0.0000 0.0000 (138771 PWs)   bands (ev):

   -29.3945 -28.8994 -20.1811 -12.8186  -9.8378  -8.0939  -8.0939  -6.9209
    -6.9209  -3.9449  -3.9449  -0.8076   3.4197   3.4197   3.5923

     occupation numbers 
     1.0000   1.0000   1.0000   1.0000   1.0000   1.0000   1.0000   1.0000
     1.0000   1.0000   1.0000   0.0000   0.0000   0.0000   0.0000

          k = 0.0000 0.2887 0.0000 (138638 PWs)   bands (ev):

   -28.9217 -28.5707 -19.2241 -12.5065 -11.2684 -10.1634  -9.1271  -7.7555
    -7.1392  -6.3498  -4.8174   0.8095   3.8093   5.2882   5.7648

     occupation numbers 
     1.0000   1.0000   1.0000   1.0000   1.0000   1.0000   1.0000   1.0000
     1.0000   1.0000   1.0000   0.0000   0.0000   0.0000   0.0000

          k = 0.0000-0.5774 0.0000 (138392 PWs)   bands (ev):

   -28.3629 -28.2533 -16.7604 -15.7895 -11.5916 -10.7835  -9.9915  -8.4294
    -7.9184  -7.3826  -5.3278   1.4675   4.6918   4.9297   8.7432

     occupation numbers 
     1.0000   1.0000   1.0000   1.0000   1.0000   1.0000   1.0000   1.0000
     1.0000   1.0000   1.0000   0.0000   0.0000   0.0000   0.0000

          k = 0.2500 0.4330 0.0000 (138482 PWs)   bands (ev):

   -28.3836 -28.2437 -17.3268 -14.0462 -12.1344 -11.3450 -10.4649  -8.5166
    -7.8106  -7.1054  -6.3066   3.3239   5.7529   7.0513   7.1224

     occupation numbers 
     1.0000   1.0000   1.0000   1.0000   1.0000   1.0000   1.0000   1.0000
     1.0000   1.0000   1.0000   0.0000   0.0000   0.0000   0.0000

     the Fermi energy is    -3.1238 ev

!    total energy              =    -120.12990292 Ry
     estimated scf accuracy    <          4.4E-13 Ry
     smearing contrib. (-TS)   =       0.00000000 Ry
     internal energy E=F+TS    =    -120.12990292 Ry

     The total energy is F=E-TS. E is the sum of the following terms:
     one-electron contribution =    -975.19927115 Ry
     hartree contribution      =     493.36911226 Ry
     xc contribution           =     -25.86197033 Ry
     ewald contribution        =     387.56222630 Ry

     convergence has been achieved in  10 iterations

     negative rho (up, down):  5.458E-06 0.000E+00

     Forces acting on atoms (cartesian axes, Ry/au):

     atom    1 type  1   force =     0.00000000    0.00000000    0.00281639
     atom    2 type  1   force =    -0.00000000    0.00000000   -0.00281639
     atom    3 type  2   force =     0.00000000    0.00000000   -0.00031552
     atom    4 type  2   force =     0.00000000   -0.00000000    0.00031552
     The non-local contrib.  to forces
     atom    1 type  1   force =     0.00000000   -0.00000000   -0.38450705
     atom    2 type  1   force =     0.00000000   -0.00000000    0.38450705
     atom    3 type  2   force =     0.00000000    0.00000000    2.50501535
     atom    4 type  2   force =     0.00000000    0.00000000   -2.50501535
     The ionic contribution  to forces
     atom    1 type  1   force =    -0.00000001    0.00000000   -1.16488099
     atom    2 type  1   force =     0.00000001   -0.00000000    1.16488099
     atom    3 type  2   force =    -0.00000000    0.00000000  -48.74159951
     atom    4 type  2   force =     0.00000000   -0.00000000   48.74159951
     The local contribution  to forces
     atom    1 type  1   force =    -0.00000000   -0.00000000    1.54915917
     atom    2 type  1   force =     0.00000001   -0.00000001   -1.54915918
     atom    3 type  2   force =    -0.00000000    0.00000002   46.23626566
     atom    4 type  2   force =     0.00000016   -0.00000007  -46.23626570
     The core correction contribution to forces
     atom    1 type  1   force =    -0.00000000   -0.00000000    0.00304503
     atom    2 type  1   force =    -0.00000000   -0.00000000   -0.00304503
     atom    3 type  2   force =     0.00000000    0.00000000    0.00000000
     atom    4 type  2   force =     0.00000000    0.00000000    0.00000000
     The Hubbard contrib.    to forces
     atom    1 type  1   force =     0.00000000    0.00000000    0.00000000
     atom    2 type  1   force =     0.00000000    0.00000000    0.00000000
     atom    3 type  2   force =     0.00000000    0.00000000    0.00000000
     atom    4 type  2   force =     0.00000000    0.00000000    0.00000000
     The SCF correction term to forces
     atom    1 type  1   force =     0.00000000    0.00000000    0.00000023
     atom    2 type  1   force =     0.00000000   -0.00000000   -0.00000023
     atom    3 type  2   force =    -0.00000000   -0.00000000    0.00000296
     atom    4 type  2   force =    -0.00000000   -0.00000000   -0.00000296

     Total force =     0.004008     Total SCF correction =     0.000004


     Computing stress (Cartesian axis) and pressure


     negative rho (up, down):  5.458E-06 0.000E+00
          total   stress  (Ry/bohr**3)                   (kbar)     P=        0.78
   0.00000849  -0.00000000  -0.00000000            1.25       -0.00       -0.00
  -0.00000000   0.00000849  -0.00000000           -0.00        1.25       -0.00
   0.00000000   0.00000000  -0.00000104            0.00        0.00       -0.15

     kinetic stress (kbar)   6760.84     -0.00      0.00
                               -0.00   6760.84      0.00
                                0.00      0.00   6005.10

     local   stress (kbar)-188577.33      0.00     -0.00
                                0.00-188577.33      0.00
                               -0.00      0.00 183501.12

     nonloc. stress (kbar)    870.54     -0.00      0.00
                               -0.00    870.54      0.00
                                0.00      0.00    674.66

     hartree stress (kbar)  94249.70      0.00     -0.00
                                0.00  94249.70     -0.00
                               -0.00     -0.00 -89584.70

     exc-cor stress (kbar)  -1583.56     -0.00      0.00
                               -0.00  -1583.56     -0.00
                                0.00     -0.00  -1573.28

     corecor stress (kbar)    -54.58      0.00     -0.00
                                0.00    -54.58      0.00
                               -0.00      0.00    -53.42

     ewald   stress (kbar)  88335.65     -0.00      0.00
                               -0.00  88335.65     -0.00
                                0.00     -0.00 -98969.63

     hubbard stress (kbar)      0.00      0.00      0.00
                                0.00      0.00      0.00
                                0.00      0.00      0.00

     DFT-D   stress (kbar)      0.00      0.00      0.00
                                0.00      0.00      0.00
                                0.00      0.00      0.00

     XDM     stress (kbar)      0.00      0.00      0.00
                                0.00      0.00      0.00
                                0.00      0.00      0.00

     dft-nl  stress (kbar)      0.00      0.00      0.00
                                0.00      0.00      0.00
                                0.00      0.00      0.00

     TS-vdW  stress (kbar)      0.00      0.00      0.00
                                0.00      0.00      0.00
                                0.00      0.00      0.00

     MDB     stress (kbar)      0.00      0.00      0.00
                                0.00      0.00      0.00
                                0.00      0.00      0.00

     3D-RISM stress (kbar)      0.00      0.00      0.00
                                0.00      0.00      0.00
                                0.00      0.00      0.00


     Writing all to output data dir ../tmp/fgc.save/

     init_run     :      3.10s CPU      4.47s WALL (       1 calls)
     electrons    :     64.86s CPU    101.16s WALL (       1 calls)
     forces       :      1.81s CPU      2.81s WALL (       1 calls)
     stress       :      3.29s CPU      5.80s WALL (       1 calls)

     Called by init_run:
     wfcinit      :      0.82s CPU      1.65s WALL (       1 calls)
     wfcinit:atom :      0.01s CPU      0.01s WALL (       1 calls)
     wfcinit:wfcr :      0.78s CPU      1.60s WALL (       1 calls)
     potinit      :      0.86s CPU      0.92s WALL (       1 calls)
     hinit0       :      0.87s CPU      0.90s WALL (       1 calls)

     Called by electrons:
     c_bands      :     48.13s CPU     73.99s WALL (      11 calls)
     sum_band     :      7.95s CPU     14.00s WALL (      11 calls)
     v_of_rho     :      3.99s CPU      4.16s WALL (      11 calls)
     v_h          :      0.33s CPU      0.34s WALL (      11 calls)
     v_xc         :      4.22s CPU      4.42s WALL (      13 calls)
     newd         :      3.60s CPU      7.65s WALL (      11 calls)
     mix_rho      :      0.59s CPU      0.79s WALL (      11 calls)

     Called by c_bands:
     init_us_2    :      0.15s CPU      0.16s WALL (      23 calls)
     init_us_2:cp :      0.15s CPU      0.16s WALL (      23 calls)
     cegterg      :     37.31s CPU     55.95s WALL (      11 calls)

     Called by sum_band:
     sum_band:wei :      0.42s CPU      0.45s WALL (      11 calls)
     sum_band:loo :      3.01s CPU      4.92s WALL (      11 calls)
     sum_band:buf :      0.00s CPU      0.00s WALL (      11 calls)
     sum_band:ini :      0.07s CPU      0.08s WALL (      11 calls)
     sum_band:cal :      1.33s CPU      2.87s WALL (      11 calls)
     sum_band:bec :      0.00s CPU      0.00s WALL (      11 calls)
     addusdens    :      1.82s CPU      5.10s WALL (      11 calls)
     addusd:skk   :      0.01s CPU      0.01s WALL (      22 calls)
     addusd:dgemm :      0.49s CPU      2.30s WALL (      22 calls)
     addusd:qvan2 :      0.68s CPU      1.90s WALL (      22 calls)

     Called by *egterg:
     cdiaghg      :      2.99s CPU      3.77s WALL (      52 calls)
     cegterg:over :      7.83s CPU      9.56s WALL (      42 calls)
     cegterg:upda :      0.84s CPU      1.31s WALL (      42 calls)
     cegterg:last :      1.05s CPU      1.49s WALL (      24 calls)
     h_psi        :     19.38s CPU     31.67s WALL (      54 calls)
     s_psi        :      0.61s CPU      0.89s WALL (      54 calls)
     g_psi        :      0.04s CPU      0.03s WALL (      42 calls)

     Called by h_psi:
     h_psi:calbec :      6.31s CPU     10.55s WALL (      54 calls)
     vloc_psi     :     11.66s CPU     18.45s WALL (      54 calls)
     add_vuspsi   :      1.38s CPU      2.63s WALL (      54 calls)

     General routines
     calbec       :      8.05s CPU     14.56s WALL (      70 calls)
     fft          :      3.15s CPU      3.36s WALL (     147 calls)
     ffts         :      0.40s CPU      0.46s WALL (      11 calls)
     fftw         :     11.66s CPU     18.47s WALL (    1053 calls)

     Parallel routines

     PWSCF        :   1m13.29s CPU   1m54.96s WALL


   This run was terminated on:   5: 9:38  24Feb2024            

=------------------------------------------------------------------------------=
   JOB DONE.
=------------------------------------------------------------------------------=
