
     Program PWSCF v.7.1 starts on 24Feb2024 at  5:17:18 

     This program is part of the open-source Quantum ESPRESSO suite
     for quantum simulation of materials; please cite
         "P. Giannozzi et al., J. Phys.:Condens. Matter 21 395502 (2009);
         "P. Giannozzi et al., J. Phys.:Condens. Matter 29 465901 (2017);
         "P. Giannozzi et al., J. Chem. Phys. 152 154105 (2020);
          URL http://www.quantum-espresso.org", 
     in publications or presentations arising from this work. More details at
     http://www.quantum-espresso.org/quote

     Parallel version (MPI), running on    24 processors

     MPI processes distributed on     1 nodes
     254108 MiB available memory on the printing compute node when the environment starts

     Reading input from kpoint.12.in

     Current dimensions of program PWSCF are:
     Max number of different atomic species (ntypx) = 10
     Max number of k-points (npk) =  40000
     Max angular momentum in pseudopotentials (lmaxx) =  4

     K-points division:     npool     =       6
     R & G space division:  proc/nbgrp/npool/nimage =       4
     Subspace diagonalization in iterative solution of the eigenvalue problem:
     a serial algorithm will be used


     Parallelization info
     --------------------
     sticks:   dense  smooth     PW     G-vecs:    dense   smooth      PW
     Min         832     832    228               276984   276984   38734
     Max         833     833    229               277001   277001   38747
     Sum        3331    3331    913              1107983  1107983  154963

     Using Slab Decomposition



     bravais-lattice index     =            4
     lattice parameter (alat)  =       4.9229  a.u.
     unit-cell volume          =     733.7343 (a.u.)^3
     number of atoms/cell      =            4
     number of atomic types    =            2
     number of electrons       =        22.00
     number of Kohn-Sham states=           15
     kinetic-energy cutoff     =     500.0000  Ry
     charge density cutoff     =    2000.0000  Ry
     scf convergence threshold =      1.0E-12
     mixing beta               =       0.7000
     number of iterations used =            8  plain     mixing
     Exchange-correlation=  SLA  PW   PBX  PBC
                           (   1   4   3   4   0   0   0)

     celldm(1)=   4.922852  celldm(2)=   0.000000  celldm(3)=   7.101627
     celldm(4)=   0.000000  celldm(5)=   0.000000  celldm(6)=   0.000000

     crystal axes: (cart. coord. in units of alat)
               a(1) = (   1.000000   0.000000   0.000000 )  
               a(2) = (  -0.500000   0.866025   0.000000 )  
               a(3) = (   0.000000   0.000000   7.101627 )  

     reciprocal axes: (cart. coord. in units 2 pi/alat)
               b(1) = (  1.000000  0.577350 -0.000000 )  
               b(2) = (  0.000000  1.154701  0.000000 )  
               b(3) = (  0.000000 -0.000000  0.140813 )  


     PseudoPot. # 1 for C  read from file:
     ../pseudo/c_pbe_v1.2.uspp.F.UPF
     MD5 check sum: d1aef80898a10debaa0f26306b886e00
     Pseudo is Ultrasoft + core correction, Zval =  4.0
     Generated by new atomic code, or converted to UPF format
     Using radial grid of  721 points,  4 beta functions with: 
                l(1) =   0
                l(2) =   0
                l(3) =   1
                l(4) =   1
     Q(r) pseudized with  8 coefficients,  rinner =    1.100   1.100   1.100


     PseudoPot. # 2 for F  read from file:
     ../pseudo/f_pbe_v1.4.uspp.F.UPF
     MD5 check sum: 4c38b6a325caf53ec0e86aed9459de46
     Pseudo is Ultrasoft, Zval =  7.0
     Generated by new atomic code, or converted to UPF format
     Using radial grid of  799 points,  4 beta functions with: 
                l(1) =   0
                l(2) =   0
                l(3) =   1
                l(4) =   1
     Q(r) pseudized with  8 coefficients,  rinner =    0.950   0.950   0.950


     atomic species   valence    mass     pseudopotential
        C              4.00    12.01070     C ( 1.00)
        F              7.00    18.99840     F ( 1.00)

     12 Sym. Ops., with inversion, found ( 8 have fractional translation)


                                    s                        frac. trans.

      isym =  1     identity                                     

 cryst.   s( 1) = (     1          0          0      )
                  (     0          1          0      )
                  (     0          0          1      )

 cart.    s( 1) = (  1.0000000  0.0000000  0.0000000 )
                  (  0.0000000  1.0000000  0.0000000 )
                  (  0.0000000  0.0000000  1.0000000 )


      isym =  2     180 deg rotation - cart. axis [1,0,0]        

 cryst.   s( 2) = (     1          0          0      )
                  (    -1         -1          0      )
                  (     0          0         -1      )

 cart.    s( 2) = (  1.0000000  0.0000000  0.0000000 )
                  (  0.0000000 -1.0000000  0.0000000 )
                  (  0.0000000  0.0000000 -1.0000000 )


      isym =  3     120 deg rotation - cryst. axis [0,0,1]       

 cryst.   s( 3) = (     0          1          0      )    f =( -0.5000000 )
                  (    -1         -1          0      )       ( -0.5000000 )
                  (     0          0          1      )       (  0.0000000 )

 cart.    s( 3) = ( -0.5000000 -0.8660254  0.0000000 )    f =( -0.2500000 )
                  (  0.8660254 -0.5000000  0.0000000 )       ( -0.4330127 )
                  (  0.0000000  0.0000000  1.0000000 )       (  0.0000000 )


      isym =  4     120 deg rotation - cryst. axis [0,0,-1]      

 cryst.   s( 4) = (    -1         -1          0      )    f =(  0.0000000 )
                  (     1          0          0      )       ( -0.5000000 )
                  (     0          0          1      )       (  0.0000000 )

 cart.    s( 4) = ( -0.5000000  0.8660254  0.0000000 )    f =(  0.2500000 )
                  ( -0.8660254 -0.5000000  0.0000000 )       ( -0.4330127 )
                  (  0.0000000  0.0000000  1.0000000 )       (  0.0000000 )


      isym =  5     180 deg rotation - cryst. axis [0,1,0]       

 cryst.   s( 5) = (    -1         -1          0      )    f =(  0.0000000 )
                  (     0          1          0      )       ( -0.5000000 )
                  (     0          0         -1      )       (  0.0000000 )

 cart.    s( 5) = ( -0.5000000 -0.8660254  0.0000000 )    f =(  0.2500000 )
                  ( -0.8660254  0.5000000  0.0000000 )       ( -0.4330127 )
                  (  0.0000000  0.0000000 -1.0000000 )       (  0.0000000 )


      isym =  6     180 deg rotation - cryst. axis [1,1,0]       

 cryst.   s( 6) = (     0          1          0      )    f =(  0.5000000 )
                  (     1          0          0      )       (  0.5000000 )
                  (     0          0         -1      )       (  0.0000000 )

 cart.    s( 6) = ( -0.5000000  0.8660254  0.0000000 )    f =(  0.2500000 )
                  (  0.8660254  0.5000000  0.0000000 )       (  0.4330127 )
                  (  0.0000000  0.0000000 -1.0000000 )       (  0.0000000 )


      isym =  7     inversion                                    

 cryst.   s( 7) = (    -1          0          0      )
                  (     0         -1          0      )
                  (     0          0         -1      )

 cart.    s( 7) = ( -1.0000000  0.0000000  0.0000000 )
                  (  0.0000000 -1.0000000  0.0000000 )
                  (  0.0000000  0.0000000 -1.0000000 )


      isym =  8     inv. 180 deg rotation - cart. axis [1,0,0]   

 cryst.   s( 8) = (    -1          0          0      )
                  (     1          1          0      )
                  (     0          0          1      )

 cart.    s( 8) = ( -1.0000000  0.0000000  0.0000000 )
                  (  0.0000000  1.0000000  0.0000000 )
                  (  0.0000000  0.0000000  1.0000000 )


      isym =  9     inv. 120 deg rotation - cryst. axis [0,0,1]  

 cryst.   s( 9) = (     0         -1          0      )    f =(  0.5000000 )
                  (     1          1          0      )       ( -0.5000000 )
                  (     0          0         -1      )       (  0.0000000 )

 cart.    s( 9) = (  0.5000000  0.8660254  0.0000000 )    f =(  0.7500000 )
                  ( -0.8660254  0.5000000  0.0000000 )       ( -0.4330127 )
                  (  0.0000000  0.0000000 -1.0000000 )       (  0.0000000 )


      isym = 10     inv. 120 deg rotation - cryst. axis [0,0,-1] 

 cryst.   s(10) = (     1          1          0      )    f =(  0.0000000 )
                  (    -1          0          0      )       (  0.5000000 )
                  (     0          0         -1      )       (  0.0000000 )

 cart.    s(10) = (  0.5000000 -0.8660254  0.0000000 )    f =( -0.2500000 )
                  (  0.8660254  0.5000000  0.0000000 )       (  0.4330127 )
                  (  0.0000000  0.0000000 -1.0000000 )       (  0.0000000 )


      isym = 11     inv. 180 deg rotation - cryst. axis [0,1,0]  

 cryst.   s(11) = (     1          1          0      )    f =(  0.0000000 )
                  (     0         -1          0      )       ( -0.5000000 )
                  (     0          0          1      )       (  0.0000000 )

 cart.    s(11) = (  0.5000000  0.8660254  0.0000000 )    f =(  0.2500000 )
                  (  0.8660254 -0.5000000  0.0000000 )       ( -0.4330127 )
                  (  0.0000000  0.0000000  1.0000000 )       (  0.0000000 )


      isym = 12     inv. 180 deg rotation - cryst. axis [1,1,0]  

 cryst.   s(12) = (     0         -1          0      )    f =( -0.5000000 )
                  (    -1          0          0      )       ( -0.5000000 )
                  (     0          0          1      )       (  0.0000000 )

 cart.    s(12) = (  0.5000000 -0.8660254  0.0000000 )    f =( -0.2500000 )
                  ( -0.8660254 -0.5000000  0.0000000 )       ( -0.4330127 )
                  (  0.0000000  0.0000000  1.0000000 )       (  0.0000000 )


     point group D_3d (-3m) 
     there are  6 classes
     the character table:

       E     2C3   3C2'  i     2S6   3s_d 
A_1g   1.00  1.00  1.00  1.00  1.00  1.00
A_2g   1.00  1.00 -1.00  1.00  1.00 -1.00
E_g    2.00 -1.00  0.00  2.00 -1.00  0.00
A_1u   1.00  1.00  1.00 -1.00 -1.00 -1.00
A_2u   1.00  1.00 -1.00 -1.00 -1.00  1.00
E_u    2.00 -1.00  0.00 -2.00  1.00  0.00

     the symmetry operations in each class and the name of the first element:

     E        1
          identity                                               
     2C3      3    4
          120 deg rotation - cryst. axis [0,0,1]                 
     3C2'     2    5    6
          180 deg rotation - cart. axis [1,0,0]                  
     i        7
          inversion                                              
     2S6      9   10
          inv. 120 deg rotation - cryst. axis [0,0,1]            
     3s_d     8   11   12
          inv. 180 deg rotation - cart. axis [1,0,0]             

   Cartesian axes

     site n.     atom                  positions (alat units)
         1           C   tau(   1) = (   0.5000000   0.5773503  -0.0938017  )
         2           C   tau(   2) = (  -0.0000000   0.2886751   0.0938017  )
         3           F   tau(   3) = (   0.5000000   0.5773503  -0.6235043  )
         4           F   tau(   4) = (  -0.0000000   0.2886751   0.6235043  )

   Crystallographic axes

     site n.     atom                  positions (cryst. coord.)
         1           C   tau(   1) = (  0.8333333  0.6666667 -0.0132085  )
         2           C   tau(   2) = (  0.1666667  0.3333333  0.0132085  )
         3           F   tau(   3) = (  0.8333333  0.6666667 -0.0877974  )
         4           F   tau(   4) = (  0.1666667  0.3333333  0.0877974  )

     number of k points=    19  Marzari-Vanderbilt smearing, width (Ry)=  0.0010
                       cart. coord. in units 2pi/alat
        k(    1) = (   0.0000000   0.0000000   0.0000000), wk =   0.0138889
        k(    2) = (   0.0000000   0.0962250   0.0000000), wk =   0.0833333
        k(    3) = (   0.0000000   0.1924501   0.0000000), wk =   0.0833333
        k(    4) = (   0.0000000   0.2886751   0.0000000), wk =   0.0833333
        k(    5) = (   0.0000000   0.3849002   0.0000000), wk =   0.0833333
        k(    6) = (   0.0000000   0.4811252   0.0000000), wk =   0.0833333
        k(    7) = (   0.0000000  -0.5773503   0.0000000), wk =   0.0416667
        k(    8) = (   0.0833333   0.1443376   0.0000000), wk =   0.0833333
        k(    9) = (   0.0833333   0.2405626   0.0000000), wk =   0.1666667
        k(   10) = (   0.0833333   0.3367877   0.0000000), wk =   0.1666667
        k(   11) = (   0.0833333   0.4330127   0.0000000), wk =   0.1666667
        k(   12) = (   0.0833333   0.5292377   0.0000000), wk =   0.1666667
        k(   13) = (   0.1666667   0.2886751   0.0000000), wk =   0.0833333
        k(   14) = (   0.1666667   0.3849002   0.0000000), wk =   0.1666667
        k(   15) = (   0.1666667   0.4811252   0.0000000), wk =   0.1666667
        k(   16) = (   0.1666667   0.5773503   0.0000000), wk =   0.0833333
        k(   17) = (   0.2500000   0.4330127   0.0000000), wk =   0.0833333
        k(   18) = (   0.2500000   0.5292377   0.0000000), wk =   0.1666667
        k(   19) = (   0.3333333   0.5773503   0.0000000), wk =   0.0277778

                       cryst. coord.
        k(    1) = (   0.0000000   0.0000000   0.0000000), wk =   0.0138889
        k(    2) = (   0.0000000   0.0833333   0.0000000), wk =   0.0833333
        k(    3) = (   0.0000000   0.1666667   0.0000000), wk =   0.0833333
        k(    4) = (   0.0000000   0.2500000   0.0000000), wk =   0.0833333
        k(    5) = (   0.0000000   0.3333333   0.0000000), wk =   0.0833333
        k(    6) = (   0.0000000   0.4166667   0.0000000), wk =   0.0833333
        k(    7) = (   0.0000000  -0.5000000   0.0000000), wk =   0.0416667
        k(    8) = (   0.0833333   0.0833333   0.0000000), wk =   0.0833333
        k(    9) = (   0.0833333   0.1666667   0.0000000), wk =   0.1666667
        k(   10) = (   0.0833333   0.2500000   0.0000000), wk =   0.1666667
        k(   11) = (   0.0833333   0.3333333   0.0000000), wk =   0.1666667
        k(   12) = (   0.0833333   0.4166667   0.0000000), wk =   0.1666667
        k(   13) = (   0.1666667   0.1666667   0.0000000), wk =   0.0833333
        k(   14) = (   0.1666667   0.2500000   0.0000000), wk =   0.1666667
        k(   15) = (   0.1666667   0.3333333   0.0000000), wk =   0.1666667
        k(   16) = (   0.1666667   0.4166667   0.0000000), wk =   0.0833333
        k(   17) = (   0.2500000   0.2500000   0.0000000), wk =   0.0833333
        k(   18) = (   0.2500000   0.3333333   0.0000000), wk =   0.1666667
        k(   19) = (   0.3333333   0.3333333   0.0000000), wk =   0.0277778

     Dense  grid:  1107983 G-vectors     FFT dimensions: (  72,  72, 500)

     Dynamical RAM for                 wfc:       7.93 MB

     Dynamical RAM for     wfc (w. buffer):      39.63 MB

     Dynamical RAM for           str. fact:       8.45 MB

     Dynamical RAM for           local pot:       0.00 MB

     Dynamical RAM for          nlocal pot:      16.91 MB

     Dynamical RAM for                qrad:       2.05 MB

     Dynamical RAM for          rho,v,vnew:      27.51 MB

     Dynamical RAM for               rhoin:       9.17 MB

     Dynamical RAM for            rho*nmix:      67.63 MB

     Dynamical RAM for           G-vectors:      17.96 MB

     Dynamical RAM for          h,s,v(r/c):       0.04 MB

     Dynamical RAM for          <psi|beta>:       0.01 MB

     Dynamical RAM for                 psi:      15.85 MB

     Dynamical RAM for                hpsi:      15.85 MB

     Dynamical RAM for                spsi:      15.85 MB

     Dynamical RAM for      wfcinit/wfcrot:      16.92 MB

     Dynamical RAM for           addusdens:      35.22 MB

     Dynamical RAM for          addusforce:      35.22 MB

     Dynamical RAM for         addusstress:      36.98 MB

     Estimated static dynamical RAM per process >     159.09 MB

     Estimated max dynamical RAM per process >     274.33 MB

     Estimated total dynamical RAM >       5.11 GB

     Initial potential from superposition of free atoms

     starting charge      21.9999, renormalised to      22.0000

     negative rho (up, down):  1.602E-03 0.000E+00
     Starting wfcs are   16 randomized atomic wfcs

     total cpu time spent up to now is       12.6 secs

     Self-consistent Calculation

     iteration #  1     ecut=   500.00 Ry     beta= 0.70
     Davidson diagonalization with overlap

---- Real-time Memory Report at c_bands before calling an iterative solver
           201 MiB given to the printing process from OS
             0 MiB allocation reported by mallinfo(arena+hblkhd)
        250502 MiB available memory on the node where the printing process lives
------------------
     ethr =  1.00E-02,  avg # of iterations =  3.9

     Threshold (ethr) on eigenvalues was too large:
     Diagonalizing with lowered threshold

     Davidson diagonalization with overlap

---- Real-time Memory Report at c_bands before calling an iterative solver
           251 MiB given to the printing process from OS
             0 MiB allocation reported by mallinfo(arena+hblkhd)
        249566 MiB available memory on the node where the printing process lives
------------------
     ethr =  9.46E-04,  avg # of iterations =  1.8

     negative rho (up, down):  4.580E-04 0.000E+00

     total cpu time spent up to now is       72.6 secs

     total energy              =    -120.08892009 Ry
     estimated scf accuracy    <       0.20534492 Ry

     iteration #  2     ecut=   500.00 Ry     beta= 0.70
     Davidson diagonalization with overlap

---- Real-time Memory Report at c_bands before calling an iterative solver
           310 MiB given to the printing process from OS
             0 MiB allocation reported by mallinfo(arena+hblkhd)
        249768 MiB available memory on the node where the printing process lives
------------------
     ethr =  9.33E-04,  avg # of iterations =  2.2

     negative rho (up, down):  2.530E-04 0.000E+00

     total cpu time spent up to now is       99.9 secs

     total energy              =    -120.10223492 Ry
     estimated scf accuracy    <       0.10653279 Ry

     iteration #  3     ecut=   500.00 Ry     beta= 0.70
     Davidson diagonalization with overlap

---- Real-time Memory Report at c_bands before calling an iterative solver
           321 MiB given to the printing process from OS
             0 MiB allocation reported by mallinfo(arena+hblkhd)
        249062 MiB available memory on the node where the printing process lives
------------------
     ethr =  4.84E-04,  avg # of iterations =  2.8

     negative rho (up, down):  5.496E-05 0.000E+00

     total cpu time spent up to now is      130.6 secs

     total energy              =    -120.13183595 Ry
     estimated scf accuracy    <       0.01471061 Ry

     iteration #  4     ecut=   500.00 Ry     beta= 0.70
     Davidson diagonalization with overlap

---- Real-time Memory Report at c_bands before calling an iterative solver
           329 MiB given to the printing process from OS
             0 MiB allocation reported by mallinfo(arena+hblkhd)
        249732 MiB available memory on the node where the printing process lives
------------------
     ethr =  6.69E-05,  avg # of iterations =  4.5

     negative rho (up, down):  9.650E-06 0.000E+00

     total cpu time spent up to now is      173.3 secs

     total energy              =    -120.13427333 Ry
     estimated scf accuracy    <       0.00012657 Ry

     iteration #  5     ecut=   500.00 Ry     beta= 0.70
     Davidson diagonalization with overlap

---- Real-time Memory Report at c_bands before calling an iterative solver
           338 MiB given to the printing process from OS
             0 MiB allocation reported by mallinfo(arena+hblkhd)
        249001 MiB available memory on the node where the printing process lives
------------------
     ethr =  5.75E-07,  avg # of iterations =  6.9

     negative rho (up, down):  5.479E-06 0.000E+00

     total cpu time spent up to now is      233.3 secs

     total energy              =    -120.13431139 Ry
     estimated scf accuracy    <       0.00000640 Ry

     iteration #  6     ecut=   500.00 Ry     beta= 0.70
     Davidson diagonalization with overlap

---- Real-time Memory Report at c_bands before calling an iterative solver
           346 MiB given to the printing process from OS
             0 MiB allocation reported by mallinfo(arena+hblkhd)
        249287 MiB available memory on the node where the printing process lives
------------------
     ethr =  2.91E-08,  avg # of iterations =  2.0

     negative rho (up, down):  5.445E-06 0.000E+00

     total cpu time spent up to now is      259.2 secs

     total energy              =    -120.13431226 Ry
     estimated scf accuracy    <       0.00000023 Ry

     iteration #  7     ecut=   500.00 Ry     beta= 0.70
     Davidson diagonalization with overlap

---- Real-time Memory Report at c_bands before calling an iterative solver
           355 MiB given to the printing process from OS
             0 MiB allocation reported by mallinfo(arena+hblkhd)
        248956 MiB available memory on the node where the printing process lives
------------------
     ethr =  1.05E-09,  avg # of iterations =  2.5

     negative rho (up, down):  5.450E-06 0.000E+00

     total cpu time spent up to now is      296.7 secs

     total energy              =    -120.13431234 Ry
     estimated scf accuracy    <       0.00000005 Ry

     iteration #  8     ecut=   500.00 Ry     beta= 0.70
     Davidson diagonalization with overlap

---- Real-time Memory Report at c_bands before calling an iterative solver
           363 MiB given to the printing process from OS
             0 MiB allocation reported by mallinfo(arena+hblkhd)
        248916 MiB available memory on the node where the printing process lives
------------------
     ethr =  2.21E-10,  avg # of iterations =  2.0

     negative rho (up, down):  5.453E-06 0.000E+00

     total cpu time spent up to now is      322.4 secs

     total energy              =    -120.13431235 Ry
     estimated scf accuracy    <          1.5E-10 Ry

     iteration #  9     ecut=   500.00 Ry     beta= 0.70
     Davidson diagonalization with overlap

---- Real-time Memory Report at c_bands before calling an iterative solver
           371 MiB given to the printing process from OS
             0 MiB allocation reported by mallinfo(arena+hblkhd)
        249163 MiB available memory on the node where the printing process lives
------------------
     ethr =  6.77E-13,  avg # of iterations =  4.2

     negative rho (up, down):  5.454E-06 0.000E+00

     total cpu time spent up to now is      365.4 secs

     total energy              =    -120.13431235 Ry
     estimated scf accuracy    <          3.0E-11 Ry

     iteration # 10     ecut=   500.00 Ry     beta= 0.70
     Davidson diagonalization with overlap

---- Real-time Memory Report at c_bands before calling an iterative solver
           380 MiB given to the printing process from OS
             0 MiB allocation reported by mallinfo(arena+hblkhd)
        249812 MiB available memory on the node where the printing process lives
------------------
     ethr =  1.38E-13,  avg # of iterations =  2.0

     negative rho (up, down):  5.454E-06 0.000E+00

     total cpu time spent up to now is      394.6 secs

     End of self-consistent calculation

          k = 0.0000 0.0000 0.0000 (138771 PWs)   bands (ev):

   -29.3982 -28.9023 -20.1882 -12.8244  -9.8425  -8.0997  -8.0997  -6.9220
    -6.9220  -3.9534  -3.9534  -0.8110   3.4083   3.4083   3.5914

     occupation numbers 
     1.0000   1.0000   1.0000   1.0000   1.0000   1.0000   1.0000   1.0000
     1.0000   1.0000   1.0000   0.0000   0.0000   0.0000   0.0000

          k = 0.0000 0.0962 0.0000 (138755 PWs)   bands (ev):

   -29.3379 -28.8591 -20.0814 -12.7676  -9.8940  -8.5655  -8.2512  -7.0433
    -6.9471  -4.4025  -4.1138  -0.4482   3.4555   3.8070   3.8645

     occupation numbers 
     1.0000   1.0000   1.0000   1.0000   1.0000   1.0000   1.0000   1.0000
     1.0000   1.0000   1.0000   0.0000   0.0000   0.0000   0.0000

          k = 0.0000 0.1925 0.0000 (138653 PWs)   bands (ev):

   -29.1686 -28.7397 -19.7620 -12.6189 -10.1332  -9.6522  -8.6429  -7.3648
    -7.0243  -5.3490  -4.4657   0.2316   3.5738   4.3882   4.7571

     occupation numbers 
     1.0000   1.0000   1.0000   1.0000   1.0000   1.0000   1.0000   1.0000
     1.0000   1.0000   1.0000   0.0000   0.0000   0.0000   0.0000

          k = 0.0000 0.2887 0.0000 (138638 PWs)   bands (ev):

   -28.9254 -28.5737 -19.2316 -12.5130 -11.2751 -10.1680  -9.1346  -7.7567
    -7.1401  -6.3534  -4.8232   0.8043   3.7992   5.2865   5.7634

     occupation numbers 
     1.0000   1.0000   1.0000   1.0000   1.0000   1.0000   1.0000   1.0000
     1.0000   1.0000   1.0000   0.0000   0.0000   0.0000   0.0000

          k = 0.0000 0.3849 0.0000 (138490 PWs)   bands (ev):

   -28.6641 -28.4073 -18.4932 -13.3502 -11.8018 -10.4606  -9.5846  -8.1013
    -7.2610  -7.1935  -5.1013   1.1686   4.1215   5.8530   7.6661

     occupation numbers 
     1.0000   1.0000   1.0000   1.0000   1.0000   1.0000   1.0000   1.0000
     1.0000   1.0000   1.0000   0.0000   0.0000   0.0000   0.0000

          k = 0.0000 0.4811 0.0000 (138458 PWs)   bands (ev):

   -28.4533 -28.2919 -17.5636 -14.8015 -11.6708 -10.6946  -9.8916  -8.3413
    -7.7364  -7.3505  -5.2739   1.3825   4.4399   5.3251   8.4638

     occupation numbers 
     1.0000   1.0000   1.0000   1.0000   1.0000   1.0000   1.0000   1.0000
     1.0000   1.0000   1.0000   0.0000   0.0000   0.0000   0.0000

          k = 0.0000-0.5774 0.0000 (138392 PWs)   bands (ev):

   -28.3663 -28.2565 -16.7685 -15.7977 -11.5968 -10.7873  -9.9997  -8.4313
    -7.9200  -7.3834  -5.3323   1.4621   4.6803   4.9207   8.7283

     occupation numbers 
     1.0000   1.0000   1.0000   1.0000   1.0000   1.0000   1.0000   1.0000
     1.0000   1.0000   1.0000   0.0000   0.0000   0.0000   0.0000

          k = 0.0833 0.1443 0.0000 (138671 PWs)   bands (ev):

   -29.2230 -28.7778 -19.8683 -12.6641 -10.0090  -9.3298  -8.5715  -7.2121
    -7.0516  -5.0228  -4.4345   0.0874   3.6884   4.2136   4.2890

     occupation numbers 
     1.0000   1.0000   1.0000   1.0000   1.0000   1.0000   1.0000   1.0000
     1.0000   1.0000   1.0000   0.0000   0.0000   0.0000   0.0000

          k = 0.0833 0.2406 0.0000 (138619 PWs)   bands (ev):

   -29.0165 -28.6348 -19.4432 -12.5143 -10.6223 -10.1703  -9.0819  -7.5270
    -7.2241  -5.8763  -4.8676   0.7923   3.9901   4.9499   5.2035

     occupation numbers 
     1.0000   1.0000   1.0000   1.0000   1.0000   1.0000   1.0000   1.0000
     1.0000   1.0000   1.0000   0.0000   0.0000   0.0000   0.0000

          k = 0.0833 0.3368 0.0000 (138569 PWs)   bands (ev):

   -28.7634 -28.4678 -18.8078 -12.7382 -11.6738 -10.4616  -9.5956  -7.9188
    -7.4098  -6.6872  -5.2090   1.3767   4.2678   5.8406   6.4657

     occupation numbers 
     1.0000   1.0000   1.0000   1.0000   1.0000   1.0000   1.0000   1.0000
     1.0000   1.0000   1.0000   0.0000   0.0000   0.0000   0.0000

          k = 0.0833 0.4330 0.0000 (138481 PWs)   bands (ev):

   -28.5257 -28.3261 -17.9684 -14.0290 -11.7187 -10.6848 -10.0317  -8.2544
    -7.6332  -7.2218  -5.4345   1.7864   4.5335   5.6871   7.8369

     occupation numbers 
     1.0000   1.0000   1.0000   1.0000   1.0000   1.0000   1.0000   1.0000
     1.0000   1.0000   1.0000   0.0000   0.0000   0.0000   0.0000

          k = 0.0833 0.5292 0.0000 (138419 PWs)   bands (ev):

   -28.3719 -28.2538 -16.9879 -15.3736 -11.6217 -10.7707 -10.3133  -8.4492
    -7.8410  -7.4137  -5.5473   2.0308   4.7593   5.1148   8.3942

     occupation numbers 
     1.0000   1.0000   1.0000   1.0000   1.0000   1.0000   1.0000   1.0000
     1.0000   1.0000   1.0000   0.0000   0.0000   0.0000   0.0000

          k = 0.1667 0.2887 0.0000 (138589 PWs)   bands (ev):

   -28.7995 -28.4901 -18.9125 -12.5412 -11.3257 -10.7201  -9.6636  -7.6758
    -7.6577  -6.3715  -5.4201   1.6067   4.8339   5.7722   5.8548

     occupation numbers 
     1.0000   1.0000   1.0000   1.0000   1.0000   1.0000   1.0000   1.0000
     1.0000   1.0000   1.0000   0.0000   0.0000   0.0000   0.0000

          k = 0.1667 0.3849 0.0000 (138511 PWs)   bands (ev):

   -28.5682 -28.3465 -18.1723 -13.3088 -11.6405 -11.1515 -10.1327  -8.1570
    -7.7599  -6.8731  -5.8045   2.3693   5.3327   6.1175   7.0067

     occupation numbers 
     1.0000   1.0000   1.0000   1.0000   1.0000   1.0000   1.0000   1.0000
     1.0000   1.0000   1.0000   0.0000   0.0000   0.0000   0.0000

          k = 0.1667 0.4811 0.0000 (138462 PWs)   bands (ev):

   -28.3822 -28.2491 -17.2428 -14.5759 -11.7908 -11.1417 -10.5165  -8.4905
    -7.7832  -7.3083  -6.0049   3.0009   5.4657   5.5071   7.7536

     occupation numbers 
     1.0000   1.0000   1.0000   1.0000   1.0000   1.0000   1.0000   1.0000
     1.0000   1.0000   1.0000   0.0000   0.0000   0.0000   0.0000

          k = 0.1667 0.5774 0.0000 (138468 PWs)   bands (ev):

   -28.3043 -28.2212 -16.4548 -15.5137 -11.8694 -10.9777 -10.7591  -8.6042
    -7.7402  -7.5229  -6.0677   3.3259   5.0714   5.5345   7.8401

     occupation numbers 
     1.0000   1.0000   1.0000   1.0000   1.0000   1.0000   1.0000   1.0000
     1.0000   1.0000   1.0000   0.0000   0.0000   0.0000   0.0000

          k = 0.2500 0.4330 0.0000 (138482 PWs)   bands (ev):

   -28.3870 -28.2470 -17.3348 -14.0547 -12.1423 -11.3500 -10.4698  -8.5175
    -7.8120  -7.1072  -6.3094   3.3166   5.7421   7.0384   7.1118

     occupation numbers 
     1.0000   1.0000   1.0000   1.0000   1.0000   1.0000   1.0000   1.0000
     1.0000   1.0000   1.0000   0.0000   0.0000   0.0000   0.0000

          k = 0.2500 0.5292 0.0000 (138489 PWs)   bands (ev):

   -28.2674 -28.2018 -16.3682 -15.0024 -12.6620 -11.1169 -10.7276  -8.7353
    -7.6799  -7.4127  -6.5660   4.0788   5.2526   7.0573   7.3056

     occupation numbers 
     1.0000   1.0000   1.0000   1.0000   1.0000   1.0000   1.0000   1.0000
     1.0000   1.0000   1.0000   0.0000   0.0000   0.0000   0.0000

          k = 0.3333 0.5774 0.0000 (138462 PWs)   bands (ev):

   -28.2049 -28.2049 -15.5335 -15.5335 -13.1928 -10.9161 -10.9161  -8.8359
    -7.5002  -7.5002  -6.8615   4.8177   4.8177   7.0277   8.4926

     occupation numbers 
     1.0000   1.0000   1.0000   1.0000   1.0000   1.0000   1.0000   1.0000
     1.0000   1.0000   1.0000   0.0000   0.0000   0.0000   0.0000

     the Fermi energy is    -3.1352 ev

!    total energy              =    -120.13431235 Ry
     estimated scf accuracy    <          9.1E-13 Ry
     smearing contrib. (-TS)   =       0.00000000 Ry
     internal energy E=F+TS    =    -120.13431235 Ry

     The total energy is F=E-TS. E is the sum of the following terms:
     one-electron contribution =    -975.19910219 Ry
     hartree contribution      =     493.36102501 Ry
     xc contribution           =     -25.85846147 Ry
     ewald contribution        =     387.56222630 Ry

     convergence has been achieved in  10 iterations

     negative rho (up, down):  5.454E-06 0.000E+00

     Forces acting on atoms (cartesian axes, Ry/au):

     atom    1 type  1   force =    -0.00000000    0.00000000   -0.00034145
     atom    2 type  1   force =     0.00000000   -0.00000000    0.00034145
     atom    3 type  2   force =    -0.00000000    0.00000000    0.00003403
     atom    4 type  2   force =     0.00000000    0.00000000   -0.00003403
     The non-local contrib.  to forces
     atom    1 type  1   force =    -0.00000000   -0.00000000   -0.39808268
     atom    2 type  1   force =    -0.00000000    0.00000000    0.39808268
     atom    3 type  2   force =     0.00000000    0.00000000    2.50680153
     atom    4 type  2   force =     0.00000000    0.00000000   -2.50680153
     The ionic contribution  to forces
     atom    1 type  1   force =    -0.00000001    0.00000000   -1.16488099
     atom    2 type  1   force =     0.00000001   -0.00000000    1.16488099
     atom    3 type  2   force =    -0.00000000    0.00000000  -48.74159951
     atom    4 type  2   force =     0.00000000   -0.00000000   48.74159951
     The local contribution  to forces
     atom    1 type  1   force =    -0.00000000    0.00000001    1.55945131
     atom    2 type  1   force =     0.00000001   -0.00000000   -1.55945129
     atom    3 type  2   force =    -0.00000000    0.00000007   46.23482789
     atom    4 type  2   force =     0.00000016   -0.00000003  -46.23482791
     The core correction contribution to forces
     atom    1 type  1   force =    -0.00000000   -0.00000000    0.00317048
     atom    2 type  1   force =    -0.00000000    0.00000000   -0.00317048
     atom    3 type  2   force =     0.00000000    0.00000000    0.00000000
     atom    4 type  2   force =     0.00000000    0.00000000    0.00000000
     The Hubbard contrib.    to forces
     atom    1 type  1   force =     0.00000000    0.00000000    0.00000000
     atom    2 type  1   force =     0.00000000    0.00000000    0.00000000
     atom    3 type  2   force =     0.00000000    0.00000000    0.00000000
     atom    4 type  2   force =     0.00000000    0.00000000    0.00000000
     The SCF correction term to forces
     atom    1 type  1   force =    -0.00000000    0.00000000    0.00000043
     atom    2 type  1   force =     0.00000000   -0.00000000   -0.00000043
     atom    3 type  2   force =    -0.00000000   -0.00000000    0.00000411
     atom    4 type  2   force =    -0.00000000    0.00000000   -0.00000411

     Total force =     0.000485     Total SCF correction =     0.000006


     Computing stress (Cartesian axis) and pressure


     negative rho (up, down):  5.454E-06 0.000E+00
          total   stress  (Ry/bohr**3)                   (kbar)     P=        0.10
   0.00000098  -0.00000000  -0.00000000            0.14       -0.00       -0.00
   0.00000000   0.00000098  -0.00000000            0.00        0.14       -0.00
  -0.00000000  -0.00000000   0.00000001           -0.00       -0.00        0.00

     kinetic stress (kbar)   6756.37     -0.00      0.00
                               -0.00   6756.37      0.00
                                0.00      0.00   6005.58

     local   stress (kbar)-188576.43      0.00     -0.00
                                0.00-188576.43      0.00
                               -0.00      0.00 183501.22

     nonloc. stress (kbar)    872.15      0.00      0.00
                                0.00    872.15     -0.00
                                0.00     -0.00    676.83

     hartree stress (kbar)  94250.27     -0.00     -0.00
                               -0.00  94250.27     -0.00
                               -0.00     -0.00 -89587.47

     exc-cor stress (kbar)  -1583.33     -0.00      0.00
                               -0.00  -1583.33     -0.00
                                0.00     -0.00  -1573.09

     corecor stress (kbar)    -54.54      0.00     -0.00
                                0.00    -54.54      0.00
                               -0.00      0.00    -53.44

     ewald   stress (kbar)  88335.65     -0.00      0.00
                               -0.00  88335.65     -0.00
                                0.00     -0.00 -98969.63

     hubbard stress (kbar)      0.00      0.00      0.00
                                0.00      0.00      0.00
                                0.00      0.00      0.00

     DFT-D   stress (kbar)      0.00      0.00      0.00
                                0.00      0.00      0.00
                                0.00      0.00      0.00

     XDM     stress (kbar)      0.00      0.00      0.00
                                0.00      0.00      0.00
                                0.00      0.00      0.00

     dft-nl  stress (kbar)      0.00      0.00      0.00
                                0.00      0.00      0.00
                                0.00      0.00      0.00

     TS-vdW  stress (kbar)      0.00      0.00      0.00
                                0.00      0.00      0.00
                                0.00      0.00      0.00

     MDB     stress (kbar)      0.00      0.00      0.00
                                0.00      0.00      0.00
                                0.00      0.00      0.00

     3D-RISM stress (kbar)      0.00      0.00      0.00
                                0.00      0.00      0.00
                                0.00      0.00      0.00


     Writing all to output data dir ../tmp/fgc.save/

     init_run     :      5.93s CPU      9.37s WALL (       1 calls)
     electrons    :    249.25s CPU    382.32s WALL (       1 calls)
     forces       :      9.60s CPU     12.55s WALL (       1 calls)
     stress       :      5.65s CPU     10.27s WALL (       1 calls)

     Called by init_run:
     wfcinit      :      3.70s CPU      6.52s WALL (       1 calls)
     wfcinit:atom :      0.05s CPU      0.05s WALL (       4 calls)
     wfcinit:wfcr :      3.42s CPU      6.06s WALL (       4 calls)
     potinit      :      0.85s CPU      0.92s WALL (       1 calls)
     hinit0       :      0.86s CPU      0.90s WALL (       1 calls)

     Called by electrons:
     c_bands      :    212.84s CPU    328.87s WALL (      11 calls)
     sum_band     :     27.15s CPU     39.86s WALL (      11 calls)
     v_of_rho     :      4.00s CPU      4.18s WALL (      11 calls)
     v_h          :      0.34s CPU      0.35s WALL (      11 calls)
     v_xc         :      4.25s CPU      4.48s WALL (      13 calls)
     newd         :      3.60s CPU      8.02s WALL (      11 calls)
     mix_rho      :      0.68s CPU      0.90s WALL (      11 calls)

     Called by c_bands:
     init_us_2    :      0.95s CPU      1.25s WALL (     100 calls)
     init_us_2:cp :      0.95s CPU      1.25s WALL (     100 calls)
     cegterg      :    182.40s CPU    274.63s WALL (      44 calls)

     Called by sum_band:
     sum_band:wei :      0.26s CPU      0.30s WALL (      11 calls)
     sum_band:loo :     22.93s CPU     32.50s WALL (      11 calls)
     sum_band:buf :      0.12s CPU      0.13s WALL (      44 calls)
     sum_band:ini :      0.46s CPU      0.56s WALL (      44 calls)
     sum_band:cal :     11.27s CPU     16.04s WALL (      44 calls)
     sum_band:bec :      0.00s CPU      0.00s WALL (      44 calls)
     addusdens    :      1.90s CPU      5.00s WALL (      11 calls)
     addusd:skk   :      0.01s CPU      0.01s WALL (      22 calls)
     addusd:dgemm :      0.57s CPU      1.99s WALL (      22 calls)
     addusd:qvan2 :      0.65s CPU      1.90s WALL (      22 calls)

     Called by *egterg:
     cdiaghg      :     11.58s CPU     18.41s WALL (     210 calls)
     cegterg:over :     33.23s CPU     43.52s WALL (     170 calls)
     cegterg:upda :      4.27s CPU      7.71s WALL (     170 calls)
     cegterg:last :      4.38s CPU      5.64s WALL (      99 calls)
     h_psi        :    105.44s CPU    163.81s WALL (     218 calls)
     s_psi        :      2.59s CPU      3.63s WALL (     218 calls)
     g_psi        :      0.16s CPU      0.12s WALL (     170 calls)

     Called by h_psi:
     h_psi:calbec :     43.25s CPU     59.31s WALL (     218 calls)
     vloc_psi     :     56.53s CPU     93.09s WALL (     218 calls)
     add_vuspsi   :      5.43s CPU     11.08s WALL (     218 calls)

     General routines
     calbec       :     63.77s CPU     88.28s WALL (     282 calls)
     fft          :      3.16s CPU      3.38s WALL (     147 calls)
     ffts         :      0.56s CPU      0.60s WALL (      11 calls)
     fftw         :     60.65s CPU     99.29s WALL (    4354 calls)

     Parallel routines

     PWSCF        :   4m32.27s CPU   6m58.81s WALL


   This run was terminated on:   5:24:17  24Feb2024            

=------------------------------------------------------------------------------=
   JOB DONE.
=------------------------------------------------------------------------------=
