
     Program PWSCF v.7.1 starts on 24Feb2024 at  5: 5:46 

     This program is part of the open-source Quantum ESPRESSO suite
     for quantum simulation of materials; please cite
         "P. Giannozzi et al., J. Phys.:Condens. Matter 21 395502 (2009);
         "P. Giannozzi et al., J. Phys.:Condens. Matter 29 465901 (2017);
         "P. Giannozzi et al., J. Chem. Phys. 152 154105 (2020);
          URL http://www.quantum-espresso.org", 
     in publications or presentations arising from this work. More details at
     http://www.quantum-espresso.org/quote

     Parallel version (MPI), running on    24 processors

     MPI processes distributed on     1 nodes
     254351 MiB available memory on the printing compute node when the environment starts

     Reading input from kpoint.3.in

     Current dimensions of program PWSCF are:
     Max number of different atomic species (ntypx) = 10
     Max number of k-points (npk) =  40000
     Max angular momentum in pseudopotentials (lmaxx) =  4

     K-points division:     npool     =       6
     R & G space division:  proc/nbgrp/npool/nimage =       4
     Subspace diagonalization in iterative solution of the eigenvalue problem:
     a serial algorithm will be used

     Message from routine divide_et_impera:
     suboptimal parallelization: some nodes have no k-points

     Parallelization info
     --------------------
     sticks:   dense  smooth     PW     G-vecs:    dense   smooth      PW
     Min         832     832    228               276984   276984   38734
     Max         833     833    229               277001   277001   38747
     Sum        3331    3331    913              1107983  1107983  154963

     Using Slab Decomposition



     bravais-lattice index     =            4
     lattice parameter (alat)  =       4.9229  a.u.
     unit-cell volume          =     733.7343 (a.u.)^3
     number of atoms/cell      =            4
     number of atomic types    =            2
     number of electrons       =        22.00
     number of Kohn-Sham states=           15
     kinetic-energy cutoff     =     500.0000  Ry
     charge density cutoff     =    2000.0000  Ry
     scf convergence threshold =      1.0E-12
     mixing beta               =       0.7000
     number of iterations used =            8  plain     mixing
     Exchange-correlation=  SLA  PW   PBX  PBC
                           (   1   4   3   4   0   0   0)

     celldm(1)=   4.922852  celldm(2)=   0.000000  celldm(3)=   7.101627
     celldm(4)=   0.000000  celldm(5)=   0.000000  celldm(6)=   0.000000

     crystal axes: (cart. coord. in units of alat)
               a(1) = (   1.000000   0.000000   0.000000 )  
               a(2) = (  -0.500000   0.866025   0.000000 )  
               a(3) = (   0.000000   0.000000   7.101627 )  

     reciprocal axes: (cart. coord. in units 2 pi/alat)
               b(1) = (  1.000000  0.577350 -0.000000 )  
               b(2) = (  0.000000  1.154701  0.000000 )  
               b(3) = (  0.000000 -0.000000  0.140813 )  


     PseudoPot. # 1 for C  read from file:
     ../pseudo/c_pbe_v1.2.uspp.F.UPF
     MD5 check sum: d1aef80898a10debaa0f26306b886e00
     Pseudo is Ultrasoft + core correction, Zval =  4.0
     Generated by new atomic code, or converted to UPF format
     Using radial grid of  721 points,  4 beta functions with: 
                l(1) =   0
                l(2) =   0
                l(3) =   1
                l(4) =   1
     Q(r) pseudized with  8 coefficients,  rinner =    1.100   1.100   1.100


     PseudoPot. # 2 for F  read from file:
     ../pseudo/f_pbe_v1.4.uspp.F.UPF
     MD5 check sum: 4c38b6a325caf53ec0e86aed9459de46
     Pseudo is Ultrasoft, Zval =  7.0
     Generated by new atomic code, or converted to UPF format
     Using radial grid of  799 points,  4 beta functions with: 
                l(1) =   0
                l(2) =   0
                l(3) =   1
                l(4) =   1
     Q(r) pseudized with  8 coefficients,  rinner =    0.950   0.950   0.950


     atomic species   valence    mass     pseudopotential
        C              4.00    12.01070     C ( 1.00)
        F              7.00    18.99840     F ( 1.00)

     12 Sym. Ops., with inversion, found ( 8 have fractional translation)


                                    s                        frac. trans.

      isym =  1     identity                                     

 cryst.   s( 1) = (     1          0          0      )
                  (     0          1          0      )
                  (     0          0          1      )

 cart.    s( 1) = (  1.0000000  0.0000000  0.0000000 )
                  (  0.0000000  1.0000000  0.0000000 )
                  (  0.0000000  0.0000000  1.0000000 )


      isym =  2     180 deg rotation - cart. axis [1,0,0]        

 cryst.   s( 2) = (     1          0          0      )
                  (    -1         -1          0      )
                  (     0          0         -1      )

 cart.    s( 2) = (  1.0000000  0.0000000  0.0000000 )
                  (  0.0000000 -1.0000000  0.0000000 )
                  (  0.0000000  0.0000000 -1.0000000 )


      isym =  3     120 deg rotation - cryst. axis [0,0,1]       

 cryst.   s( 3) = (     0          1          0      )    f =( -0.5000000 )
                  (    -1         -1          0      )       ( -0.5000000 )
                  (     0          0          1      )       (  0.0000000 )

 cart.    s( 3) = ( -0.5000000 -0.8660254  0.0000000 )    f =( -0.2500000 )
                  (  0.8660254 -0.5000000  0.0000000 )       ( -0.4330127 )
                  (  0.0000000  0.0000000  1.0000000 )       (  0.0000000 )


      isym =  4     120 deg rotation - cryst. axis [0,0,-1]      

 cryst.   s( 4) = (    -1         -1          0      )    f =(  0.0000000 )
                  (     1          0          0      )       ( -0.5000000 )
                  (     0          0          1      )       (  0.0000000 )

 cart.    s( 4) = ( -0.5000000  0.8660254  0.0000000 )    f =(  0.2500000 )
                  ( -0.8660254 -0.5000000  0.0000000 )       ( -0.4330127 )
                  (  0.0000000  0.0000000  1.0000000 )       (  0.0000000 )


      isym =  5     180 deg rotation - cryst. axis [0,1,0]       

 cryst.   s( 5) = (    -1         -1          0      )    f =(  0.0000000 )
                  (     0          1          0      )       ( -0.5000000 )
                  (     0          0         -1      )       (  0.0000000 )

 cart.    s( 5) = ( -0.5000000 -0.8660254  0.0000000 )    f =(  0.2500000 )
                  ( -0.8660254  0.5000000  0.0000000 )       ( -0.4330127 )
                  (  0.0000000  0.0000000 -1.0000000 )       (  0.0000000 )


      isym =  6     180 deg rotation - cryst. axis [1,1,0]       

 cryst.   s( 6) = (     0          1          0      )    f =(  0.5000000 )
                  (     1          0          0      )       (  0.5000000 )
                  (     0          0         -1      )       (  0.0000000 )

 cart.    s( 6) = ( -0.5000000  0.8660254  0.0000000 )    f =(  0.2500000 )
                  (  0.8660254  0.5000000  0.0000000 )       (  0.4330127 )
                  (  0.0000000  0.0000000 -1.0000000 )       (  0.0000000 )


      isym =  7     inversion                                    

 cryst.   s( 7) = (    -1          0          0      )
                  (     0         -1          0      )
                  (     0          0         -1      )

 cart.    s( 7) = ( -1.0000000  0.0000000  0.0000000 )
                  (  0.0000000 -1.0000000  0.0000000 )
                  (  0.0000000  0.0000000 -1.0000000 )


      isym =  8     inv. 180 deg rotation - cart. axis [1,0,0]   

 cryst.   s( 8) = (    -1          0          0      )
                  (     1          1          0      )
                  (     0          0          1      )

 cart.    s( 8) = ( -1.0000000  0.0000000  0.0000000 )
                  (  0.0000000  1.0000000  0.0000000 )
                  (  0.0000000  0.0000000  1.0000000 )


      isym =  9     inv. 120 deg rotation - cryst. axis [0,0,1]  

 cryst.   s( 9) = (     0         -1          0      )    f =(  0.5000000 )
                  (     1          1          0      )       ( -0.5000000 )
                  (     0          0         -1      )       (  0.0000000 )

 cart.    s( 9) = (  0.5000000  0.8660254  0.0000000 )    f =(  0.7500000 )
                  ( -0.8660254  0.5000000  0.0000000 )       ( -0.4330127 )
                  (  0.0000000  0.0000000 -1.0000000 )       (  0.0000000 )


      isym = 10     inv. 120 deg rotation - cryst. axis [0,0,-1] 

 cryst.   s(10) = (     1          1          0      )    f =(  0.0000000 )
                  (    -1          0          0      )       (  0.5000000 )
                  (     0          0         -1      )       (  0.0000000 )

 cart.    s(10) = (  0.5000000 -0.8660254  0.0000000 )    f =( -0.2500000 )
                  (  0.8660254  0.5000000  0.0000000 )       (  0.4330127 )
                  (  0.0000000  0.0000000 -1.0000000 )       (  0.0000000 )


      isym = 11     inv. 180 deg rotation - cryst. axis [0,1,0]  

 cryst.   s(11) = (     1          1          0      )    f =(  0.0000000 )
                  (     0         -1          0      )       ( -0.5000000 )
                  (     0          0          1      )       (  0.0000000 )

 cart.    s(11) = (  0.5000000  0.8660254  0.0000000 )    f =(  0.2500000 )
                  (  0.8660254 -0.5000000  0.0000000 )       ( -0.4330127 )
                  (  0.0000000  0.0000000  1.0000000 )       (  0.0000000 )


      isym = 12     inv. 180 deg rotation - cryst. axis [1,1,0]  

 cryst.   s(12) = (     0         -1          0      )    f =( -0.5000000 )
                  (    -1          0          0      )       ( -0.5000000 )
                  (     0          0          1      )       (  0.0000000 )

 cart.    s(12) = (  0.5000000 -0.8660254  0.0000000 )    f =( -0.2500000 )
                  ( -0.8660254 -0.5000000  0.0000000 )       ( -0.4330127 )
                  (  0.0000000  0.0000000  1.0000000 )       (  0.0000000 )


     point group D_3d (-3m) 
     there are  6 classes
     the character table:

       E     2C3   3C2'  i     2S6   3s_d 
A_1g   1.00  1.00  1.00  1.00  1.00  1.00
A_2g   1.00  1.00 -1.00  1.00  1.00 -1.00
E_g    2.00 -1.00  0.00  2.00 -1.00  0.00
A_1u   1.00  1.00  1.00 -1.00 -1.00 -1.00
A_2u   1.00  1.00 -1.00 -1.00 -1.00  1.00
E_u    2.00 -1.00  0.00 -2.00  1.00  0.00

     the symmetry operations in each class and the name of the first element:

     E        1
          identity                                               
     2C3      3    4
          120 deg rotation - cryst. axis [0,0,1]                 
     3C2'     2    5    6
          180 deg rotation - cart. axis [1,0,0]                  
     i        7
          inversion                                              
     2S6      9   10
          inv. 120 deg rotation - cryst. axis [0,0,1]            
     3s_d     8   11   12
          inv. 180 deg rotation - cart. axis [1,0,0]             

   Cartesian axes

     site n.     atom                  positions (alat units)
         1           C   tau(   1) = (   0.5000000   0.5773503  -0.0938017  )
         2           C   tau(   2) = (  -0.0000000   0.2886751   0.0938017  )
         3           F   tau(   3) = (   0.5000000   0.5773503  -0.6235043  )
         4           F   tau(   4) = (  -0.0000000   0.2886751   0.6235043  )

   Crystallographic axes

     site n.     atom                  positions (cryst. coord.)
         1           C   tau(   1) = (  0.8333333  0.6666667 -0.0132085  )
         2           C   tau(   2) = (  0.1666667  0.3333333  0.0132085  )
         3           F   tau(   3) = (  0.8333333  0.6666667 -0.0877974  )
         4           F   tau(   4) = (  0.1666667  0.3333333  0.0877974  )

     number of k points=     3  Marzari-Vanderbilt smearing, width (Ry)=  0.0010
                       cart. coord. in units 2pi/alat
        k(    1) = (   0.0000000   0.0000000   0.0000000), wk =   0.2222222
        k(    2) = (   0.0000000   0.3849002   0.0000000), wk =   1.3333333
        k(    3) = (   0.3333333   0.5773503   0.0000000), wk =   0.4444444

                       cryst. coord.
        k(    1) = (   0.0000000   0.0000000   0.0000000), wk =   0.2222222
        k(    2) = (   0.0000000   0.3333333   0.0000000), wk =   1.3333333
        k(    3) = (   0.3333333   0.3333333   0.0000000), wk =   0.4444444

     Dense  grid:  1107983 G-vectors     FFT dimensions: (  72,  72, 500)

     Dynamical RAM for                 wfc:       7.93 MB

     Dynamical RAM for     wfc (w. buffer):       7.93 MB

     Dynamical RAM for           str. fact:       8.45 MB

     Dynamical RAM for           local pot:       0.00 MB

     Dynamical RAM for          nlocal pot:      16.91 MB

     Dynamical RAM for                qrad:       2.05 MB

     Dynamical RAM for          rho,v,vnew:      27.51 MB

     Dynamical RAM for               rhoin:       9.17 MB

     Dynamical RAM for            rho*nmix:      67.63 MB

     Dynamical RAM for           G-vectors:      17.96 MB

     Dynamical RAM for          h,s,v(r/c):       0.04 MB

     Dynamical RAM for          <psi|beta>:       0.01 MB

     Dynamical RAM for                 psi:      15.85 MB

     Dynamical RAM for                hpsi:      15.85 MB

     Dynamical RAM for                spsi:      15.85 MB

     Dynamical RAM for      wfcinit/wfcrot:      16.92 MB

     Dynamical RAM for           addusdens:      35.22 MB

     Dynamical RAM for          addusforce:      35.22 MB

     Dynamical RAM for         addusstress:      36.98 MB

     Estimated static dynamical RAM per process >     127.38 MB

     Estimated max dynamical RAM per process >     242.62 MB

     Estimated total dynamical RAM >       4.37 GB

     Initial potential from superposition of free atoms

     starting charge      21.9999, renormalised to      22.0000

     negative rho (up, down):  1.602E-03 0.000E+00
     Starting wfcs are   16 randomized atomic wfcs

     total cpu time spent up to now is        4.3 secs

     Self-consistent Calculation

     iteration #  1     ecut=   500.00 Ry     beta= 0.70
     Davidson diagonalization with overlap

---- Real-time Memory Report at c_bands before calling an iterative solver
           200 MiB given to the printing process from OS
             0 MiB allocation reported by mallinfo(arena+hblkhd)
        250482 MiB available memory on the node where the printing process lives
------------------
     ethr =  1.00E-02,  avg # of iterations =  4.3

     Threshold (ethr) on eigenvalues was too large:
     Diagonalizing with lowered threshold

     Davidson diagonalization with overlap

---- Real-time Memory Report at c_bands before calling an iterative solver
           214 MiB given to the printing process from OS
             0 MiB allocation reported by mallinfo(arena+hblkhd)
        250449 MiB available memory on the node where the printing process lives
------------------
     ethr =  9.71E-04,  avg # of iterations =  1.0

     negative rho (up, down):  4.578E-04 0.000E+00

     total cpu time spent up to now is       16.7 secs

     total energy              =    -120.06948137 Ry
     estimated scf accuracy    <       0.21014512 Ry

     iteration #  2     ecut=   500.00 Ry     beta= 0.70
     Davidson diagonalization with overlap

---- Real-time Memory Report at c_bands before calling an iterative solver
           274 MiB given to the printing process from OS
             0 MiB allocation reported by mallinfo(arena+hblkhd)
        249724 MiB available memory on the node where the printing process lives
------------------
     ethr =  9.55E-04,  avg # of iterations =  2.0

     negative rho (up, down):  2.513E-04 0.000E+00

     total cpu time spent up to now is       22.9 secs

     total energy              =    -120.08214498 Ry
     estimated scf accuracy    <       0.10623425 Ry

     iteration #  3     ecut=   500.00 Ry     beta= 0.70
     Davidson diagonalization with overlap

---- Real-time Memory Report at c_bands before calling an iterative solver
           287 MiB given to the printing process from OS
             0 MiB allocation reported by mallinfo(arena+hblkhd)
        249587 MiB available memory on the node where the printing process lives
------------------
     ethr =  4.83E-04,  avg # of iterations =  4.7

     negative rho (up, down):  5.399E-05 0.000E+00

     total cpu time spent up to now is       34.8 secs

     total energy              =    -120.11198724 Ry
     estimated scf accuracy    <       0.01620703 Ry

     iteration #  4     ecut=   500.00 Ry     beta= 0.70
     Davidson diagonalization with overlap

---- Real-time Memory Report at c_bands before calling an iterative solver
           293 MiB given to the printing process from OS
             0 MiB allocation reported by mallinfo(arena+hblkhd)
        249280 MiB available memory on the node where the printing process lives
------------------
     ethr =  7.37E-05,  avg # of iterations =  4.0

     negative rho (up, down):  9.833E-06 0.000E+00

     total cpu time spent up to now is       45.9 secs

     total energy              =    -120.11469883 Ry
     estimated scf accuracy    <       0.00014051 Ry

     iteration #  5     ecut=   500.00 Ry     beta= 0.70
     Davidson diagonalization with overlap

---- Real-time Memory Report at c_bands before calling an iterative solver
           302 MiB given to the printing process from OS
             0 MiB allocation reported by mallinfo(arena+hblkhd)
        249844 MiB available memory on the node where the printing process lives
------------------
     ethr =  6.39E-07,  avg # of iterations =  9.7

     negative rho (up, down):  5.489E-06 0.000E+00

     total cpu time spent up to now is       60.5 secs

     total energy              =    -120.11475192 Ry
     estimated scf accuracy    <       0.00001391 Ry

     iteration #  6     ecut=   500.00 Ry     beta= 0.70
     Davidson diagonalization with overlap

---- Real-time Memory Report at c_bands before calling an iterative solver
           314 MiB given to the printing process from OS
             0 MiB allocation reported by mallinfo(arena+hblkhd)
        249552 MiB available memory on the node where the printing process lives
------------------
     ethr =  6.32E-08,  avg # of iterations =  2.0

     negative rho (up, down):  5.467E-06 0.000E+00

     total cpu time spent up to now is       66.5 secs

     total energy              =    -120.11475378 Ry
     estimated scf accuracy    <       0.00000029 Ry

     iteration #  7     ecut=   500.00 Ry     beta= 0.70
     Davidson diagonalization with overlap

---- Real-time Memory Report at c_bands before calling an iterative solver
           324 MiB given to the printing process from OS
             0 MiB allocation reported by mallinfo(arena+hblkhd)
        249461 MiB available memory on the node where the printing process lives
------------------
     ethr =  1.32E-09,  avg # of iterations =  3.0

     negative rho (up, down):  5.481E-06 0.000E+00

     total cpu time spent up to now is       75.4 secs

     total energy              =    -120.11475390 Ry
     estimated scf accuracy    <       0.00000011 Ry

     iteration #  8     ecut=   500.00 Ry     beta= 0.70
     Davidson diagonalization with overlap

---- Real-time Memory Report at c_bands before calling an iterative solver
           332 MiB given to the printing process from OS
             0 MiB allocation reported by mallinfo(arena+hblkhd)
        249810 MiB available memory on the node where the printing process lives
------------------
     ethr =  5.01E-10,  avg # of iterations =  2.0

     negative rho (up, down):  5.486E-06 0.000E+00

     total cpu time spent up to now is       81.0 secs

     total energy              =    -120.11475392 Ry
     estimated scf accuracy    <          1.6E-10 Ry

     iteration #  9     ecut=   500.00 Ry     beta= 0.70
     Davidson diagonalization with overlap

---- Real-time Memory Report at c_bands before calling an iterative solver
           345 MiB given to the printing process from OS
             0 MiB allocation reported by mallinfo(arena+hblkhd)
        249118 MiB available memory on the node where the printing process lives
------------------
     ethr =  7.11E-13,  avg # of iterations =  4.7

     negative rho (up, down):  5.486E-06 0.000E+00

     total cpu time spent up to now is       90.0 secs

     total energy              =    -120.11475392 Ry
     estimated scf accuracy    <          8.4E-11 Ry

     iteration # 10     ecut=   500.00 Ry     beta= 0.70
     Davidson diagonalization with overlap

---- Real-time Memory Report at c_bands before calling an iterative solver
           354 MiB given to the printing process from OS
             0 MiB allocation reported by mallinfo(arena+hblkhd)
        250138 MiB available memory on the node where the printing process lives
------------------
     ethr =  3.82E-13,  avg # of iterations =  2.0

     negative rho (up, down):  5.486E-06 0.000E+00

     total cpu time spent up to now is       95.6 secs

     total energy              =    -120.11475392 Ry
     estimated scf accuracy    <          4.1E-12 Ry

     iteration # 11     ecut=   500.00 Ry     beta= 0.70
     Davidson diagonalization with overlap

---- Real-time Memory Report at c_bands before calling an iterative solver
           354 MiB given to the printing process from OS
             0 MiB allocation reported by mallinfo(arena+hblkhd)
        249441 MiB available memory on the node where the printing process lives
------------------
     ethr =  1.00E-13,  avg # of iterations =  1.7

     negative rho (up, down):  5.486E-06 0.000E+00

     total cpu time spent up to now is      101.2 secs

     End of self-consistent calculation

          k = 0.0000 0.0000 0.0000 (138771 PWs)   bands (ev):

   -29.3786 -28.8842 -20.1641 -12.8000  -9.8208  -8.0756  -8.0756  -6.9091
    -6.9091  -3.9224  -3.9224  -0.7961   3.4446   3.4446   3.5948

     occupation numbers 
     1.0000   1.0000   1.0000   1.0000   1.0000   1.0000   1.0000   1.0000
     1.0000   1.0000   1.0000   0.0000   0.0000   0.0000   0.0000

          k = 0.0000 0.3849 0.0000 (138490 PWs)   bands (ev):

   -28.6443 -28.3884 -18.4675 -13.3216 -11.7791 -10.4405  -9.5563  -8.0883
    -7.2489  -7.1787  -5.0789   1.1882   4.1567   5.8783   7.0553

     occupation numbers 
     1.0000   1.0000   1.0000   1.0000   1.0000   1.0000   1.0000   1.0000
     1.0000   1.0000   1.0000   0.0000   0.0000   0.0000   0.0000

          k = 0.3333 0.5774 0.0000 (138462 PWs)   bands (ev):

   -28.1852 -28.1852 -15.5054 -15.5054 -13.1652 -10.8943 -10.8943  -8.8260
    -7.4871  -7.4871  -6.8467   4.8517   4.8517   7.0597   8.5328

     occupation numbers 
     1.0000   1.0000   1.0000   1.0000   1.0000   1.0000   1.0000   1.0000
     1.0000   1.0000   1.0000   0.0000   0.0000   0.0000   0.0000

     the Fermi energy is    -0.8771 ev

!    total energy              =    -120.11475392 Ry
     estimated scf accuracy    <          4.0E-13 Ry
     smearing contrib. (-TS)   =      -0.00000000 Ry
     internal energy E=F+TS    =    -120.11475392 Ry

     The total energy is F=E-TS. E is the sum of the following terms:
     one-electron contribution =    -975.20267327 Ry
     hartree contribution      =     493.39724460 Ry
     xc contribution           =     -25.87155156 Ry
     ewald contribution        =     387.56222630 Ry

     convergence has been achieved in  11 iterations

     negative rho (up, down):  5.486E-06 0.000E+00

     Forces acting on atoms (cartesian axes, Ry/au):

     atom    1 type  1   force =    -0.00000000   -0.00000000    0.00880727
     atom    2 type  1   force =     0.00000000    0.00000000   -0.00880727
     atom    3 type  2   force =     0.00000000    0.00000000    0.00001182
     atom    4 type  2   force =     0.00000000   -0.00000000   -0.00001182
     The non-local contrib.  to forces
     atom    1 type  1   force =     0.00000000    0.00000000   -0.35610060
     atom    2 type  1   force =     0.00000000   -0.00000000    0.35610060
     atom    3 type  2   force =     0.00000000   -0.00000000    2.50132214
     atom    4 type  2   force =     0.00000000    0.00000000   -2.50132214
     The ionic contribution  to forces
     atom    1 type  1   force =    -0.00000001    0.00000000   -1.16488099
     atom    2 type  1   force =     0.00000001   -0.00000000    1.16488099
     atom    3 type  2   force =    -0.00000000    0.00000000  -48.74159951
     atom    4 type  2   force =     0.00000000   -0.00000000   48.74159951
     The local contribution  to forces
     atom    1 type  1   force =    -0.00000000    0.00000001    1.52700422
     atom    2 type  1   force =     0.00000001   -0.00000000   -1.52700420
     atom    3 type  2   force =    -0.00000000    0.00000007   46.24028724
     atom    4 type  2   force =     0.00000016   -0.00000003  -46.24028726
     The core correction contribution to forces
     atom    1 type  1   force =    -0.00000000   -0.00000000    0.00278433
     atom    2 type  1   force =    -0.00000000    0.00000000   -0.00278433
     atom    3 type  2   force =     0.00000000    0.00000000    0.00000000
     atom    4 type  2   force =     0.00000000    0.00000000    0.00000000
     The Hubbard contrib.    to forces
     atom    1 type  1   force =     0.00000000    0.00000000    0.00000000
     atom    2 type  1   force =     0.00000000    0.00000000    0.00000000
     atom    3 type  2   force =     0.00000000    0.00000000    0.00000000
     atom    4 type  2   force =     0.00000000    0.00000000    0.00000000
     The SCF correction term to forces
     atom    1 type  1   force =    -0.00000000   -0.00000000    0.00000032
     atom    2 type  1   force =     0.00000000   -0.00000000   -0.00000032
     atom    3 type  2   force =     0.00000000    0.00000000    0.00000195
     atom    4 type  2   force =    -0.00000000   -0.00000000   -0.00000195

     Total force =     0.012455     Total SCF correction =     0.000003


     Computing stress (Cartesian axis) and pressure


     negative rho (up, down):  5.486E-06 0.000E+00
          total   stress  (Ry/bohr**3)                   (kbar)     P=        3.26
   0.00003889   0.00000000   0.00000000            5.72        0.00        0.00
   0.00000000   0.00003889   0.00000000            0.00        5.72        0.00
  -0.00000000  -0.00000000  -0.00001132           -0.00       -0.00       -1.66

     kinetic stress (kbar)   6772.55      0.00      0.00
                                0.00   6772.55      0.00
                                0.00      0.00   6003.70

     local   stress (kbar)-188579.64      0.00     -0.00
                                0.00-188579.64      0.00
                               -0.00      0.00 183500.18

     nonloc. stress (kbar)    866.72      0.00      0.00
                                0.00    866.72     -0.00
                                0.00     -0.00    669.54

     hartree stress (kbar)  94249.30     -0.00     -0.00
                               -0.00  94249.30     -0.00
                               -0.00     -0.00 -89578.26

     exc-cor stress (kbar)  -1584.20     -0.00      0.00
                               -0.00  -1584.20     -0.00
                                0.00     -0.00  -1573.80

     corecor stress (kbar)    -54.66      0.00     -0.00
                                0.00    -54.66      0.00
                               -0.00      0.00    -53.39

     ewald   stress (kbar)  88335.65     -0.00      0.00
                               -0.00  88335.65     -0.00
                                0.00     -0.00 -98969.63

     hubbard stress (kbar)      0.00      0.00      0.00
                                0.00      0.00      0.00
                                0.00      0.00      0.00

     DFT-D   stress (kbar)      0.00      0.00      0.00
                                0.00      0.00      0.00
                                0.00      0.00      0.00

     XDM     stress (kbar)      0.00      0.00      0.00
                                0.00      0.00      0.00
                                0.00      0.00      0.00

     dft-nl  stress (kbar)      0.00      0.00      0.00
                                0.00      0.00      0.00
                                0.00      0.00      0.00

     TS-vdW  stress (kbar)      0.00      0.00      0.00
                                0.00      0.00      0.00
                                0.00      0.00      0.00

     MDB     stress (kbar)      0.00      0.00      0.00
                                0.00      0.00      0.00
                                0.00      0.00      0.00

     3D-RISM stress (kbar)      0.00      0.00      0.00
                                0.00      0.00      0.00
                                0.00      0.00      0.00


     Writing all to output data dir ../tmp/fgc.save/

     init_run     :      2.97s CPU      4.15s WALL (       1 calls)
     electrons    :     66.49s CPU     97.23s WALL (       1 calls)
     forces       :      2.27s CPU      2.91s WALL (       1 calls)
     stress       :      4.16s CPU      5.90s WALL (       1 calls)

     Called by init_run:
     wfcinit      :      0.63s CPU      1.26s WALL (       1 calls)
     wfcinit:atom :      0.00s CPU      0.00s WALL (       1 calls)
     wfcinit:wfcr :      0.60s CPU      1.22s WALL (       1 calls)
     potinit      :      0.84s CPU      0.93s WALL (       1 calls)
     hinit0       :      0.87s CPU      0.89s WALL (       1 calls)

     Called by electrons:
     c_bands      :     46.75s CPU     67.44s WALL (      12 calls)
     sum_band     :     10.23s CPU     15.54s WALL (      12 calls)
     v_of_rho     :      4.40s CPU      4.66s WALL (      12 calls)
     v_h          :      0.36s CPU      0.38s WALL (      12 calls)
     v_xc         :      4.57s CPU      4.86s WALL (      14 calls)
     newd         :      3.71s CPU      8.09s WALL (      12 calls)
     mix_rho      :      0.79s CPU      0.87s WALL (      12 calls)

     Called by c_bands:
     init_us_2    :      0.15s CPU      0.17s WALL (      25 calls)
     init_us_2:cp :      0.15s CPU      0.17s WALL (      25 calls)
     cegterg      :     36.06s CPU     52.36s WALL (      12 calls)

     Called by sum_band:
     sum_band:wei :      0.34s CPU      0.40s WALL (      12 calls)
     sum_band:loo :      3.56s CPU      5.22s WALL (      12 calls)
     sum_band:buf :      0.00s CPU      0.00s WALL (      12 calls)
     sum_band:ini :      0.07s CPU      0.08s WALL (      12 calls)
     sum_band:cal :      1.80s CPU      3.26s WALL (      12 calls)
     sum_band:bec :      0.00s CPU      0.00s WALL (      12 calls)
     addusdens    :      2.39s CPU      5.60s WALL (      12 calls)
     addusd:skk   :      0.01s CPU      0.08s WALL (      24 calls)
     addusd:dgemm :      0.80s CPU      2.31s WALL (      24 calls)
     addusd:qvan2 :      0.67s CPU      1.78s WALL (      24 calls)

     Called by *egterg:
     cdiaghg      :      2.87s CPU      4.23s WALL (      54 calls)
     cegterg:over :      7.18s CPU     10.26s WALL (      43 calls)
     cegterg:upda :      0.80s CPU      1.34s WALL (      43 calls)
     cegterg:last :      1.20s CPU      1.48s WALL (      26 calls)
     h_psi        :     18.19s CPU     27.19s WALL (      56 calls)
     s_psi        :      0.52s CPU      0.60s WALL (      56 calls)
     g_psi        :      0.04s CPU      0.03s WALL (      43 calls)

     Called by h_psi:
     h_psi:calbec :      6.01s CPU     10.34s WALL (      56 calls)
     vloc_psi     :     10.90s CPU     14.64s WALL (      56 calls)
     add_vuspsi   :      1.24s CPU      2.14s WALL (      56 calls)

     General routines
     calbec       :      8.38s CPU     14.69s WALL (      73 calls)
     fft          :      3.34s CPU      3.55s WALL (     158 calls)
     ffts         :      0.58s CPU      0.60s WALL (      12 calls)
     fftw         :     11.06s CPU     14.64s WALL (    1142 calls)

     Parallel routines

     PWSCF        :   1m16.14s CPU   1m50.97s WALL


   This run was terminated on:   5: 7:37  24Feb2024            

=------------------------------------------------------------------------------=
   JOB DONE.
=------------------------------------------------------------------------------=
