
     Program PHONON v.7.1 starts on 15Mar2024 at  3:38:54 

     This program is part of the open-source Quantum ESPRESSO suite
     for quantum simulation of materials; please cite
         "P. Giannozzi et al., J. Phys.:Condens. Matter 21 395502 (2009);
         "P. Giannozzi et al., J. Phys.:Condens. Matter 29 465901 (2017);
         "P. Giannozzi et al., J. Chem. Phys. 152 154105 (2020);
          URL http://www.quantum-espresso.org", 
     in publications or presentations arising from this work. More details at
     http://www.quantum-espresso.org/quote

     Parallel version (MPI), running on     8 processors

     MPI processes distributed on     1 nodes
     K-points division:     npool     =       4
     R & G space division:  proc/nbgrp/npool/nimage =       2
     189424 MiB available memory on the printing compute node when the environment starts

     Reading input from ph.in
      Title line not specified: using 'default'.

     Reading xml data from directory:

     /home/ext_chineason_graduate_utm_my/fgzigzag/tmp/fgz.save/

     IMPORTANT: XC functional enforced from input :
     Exchange-correlation= PBE
                           (   1   4   3   4   0   0   0)
     Any further DFT definition will be discarded
     Please, verify this is what you really want


     Parallelization info
     --------------------
     sticks:   dense  smooth     PW     G-vecs:    dense   smooth      PW
     Min        3444    3444    915               944598   944598  129615
     Max        3445    3445    916               944605   944605  129616
     Sum        6889    6889   1831              1889203  1889203  259231

     Using Slab Decomposition

 ----2D----2D----2D----2D----2D----2D----2D----2D----2D----2D----2D----2D
  The code is running with the 2D cutoff
  Please refer to:
  Sohier, T., Calandra, M., & Mauri, F. (2017), 
  Density functional perturbation theory for gated two-dimensional heterostructures:
  Theoretical developments and application to flexural phonons in graphene.
  Physical Review B, 96(7), 75448. https://doi.org/10.1103/PhysRevB.96.075448
 ----2D----2D----2D----2D----2D----2D----2D----2D----2D----2D----2D----2D

     negative rho (up, down):  2.388E-06 0.000E+00
     Reading collected, re-writing distributed wavefunctions
       16 /  16 q-points for this run, from  1 to 16:
       N       xq(1)         xq(2)         xq(3) 
       1   0.000000000   0.000000000   0.000000000
       2   0.000000000   0.089611176   0.000000000
       3   0.000000000   0.179222352   0.000000000
       4   0.000000000   0.268833528   0.000000000
       5   0.142857143   0.000000000   0.000000000
       6   0.142857143   0.089611176   0.000000000
       7   0.142857143   0.179222352   0.000000000
       8   0.142857143   0.268833528   0.000000000
       9   0.285714286   0.000000000   0.000000000
      10   0.285714286   0.089611176   0.000000000
      11   0.285714286   0.179222352   0.000000000
      12   0.285714286   0.268833528   0.000000000
      13   0.428571429   0.000000000   0.000000000
      14   0.428571429   0.089611176   0.000000000
      15   0.428571429   0.179222352   0.000000000
      16   0.428571429   0.268833528   0.000000000


     Calculation of q =    0.0000000   0.0000000   0.0000000

     default                                                                    

     bravais-lattice index     =            0
     lattice parameter (alat)  =       4.9702  a.u.
     unit-cell volume          =    1084.4437 (a.u.)^3
     number of atoms/cell      =            8
     number of atomic types    =            2
     kinetic-energy cut-off    =     550.0000  Ry
     charge density cut-off    =    2200.0000  Ry
     convergence threshold     =      1.0E-14
     beta                      =       0.7000
     number of iterations used =            4
     Exchange-correlation= PBE
                           (   1   4   3   4   0   0   0)


     celldm(1)=    4.97024  celldm(2)=    0.00000  celldm(3)=    0.00000
     celldm(4)=    0.00000  celldm(5)=    0.00000  celldm(6)=    0.00000

     crystal axes: (cart. coord. in units of alat)
               a(1) = (  1.0000  0.0000  0.0000 )  
               a(2) = (  0.0000  1.5942  0.0000 )  
               a(3) = (  0.0000  0.0000  5.5403 )  

     reciprocal axes: (cart. coord. in units 2 pi/alat)
               b(1) = (  1.0000  0.0000  0.0000 )  
               b(2) = (  0.0000  0.6273  0.0000 )  
               b(3) = (  0.0000  0.0000  0.1805 )  


     Atoms inside the unit cell: 

     Cartesian axes

     site n.  atom      mass           positions (alat units)
        1     C   12.0107   tau(    1) = (    0.50000    0.22565    0.19372  )
        2     C   12.0107   tau(    2) = (    0.00000    1.02274   -0.19372  )
        3     C   12.0107   tau(    3) = (    0.00000    0.57145    0.19372  )
        4     C   12.0107   tau(    4) = (    0.50000    1.36854   -0.19372  )
        5     F   18.9984   tau(    5) = (    0.50000   -0.00958   -0.67198  )
        6     F   18.9984   tau(    6) = (    0.00000    0.78751    0.67198  )
        7     F   18.9984   tau(    7) = (    0.00000    0.80668   -0.67198  )
        8     F   18.9984   tau(    8) = (    0.50000    0.00958    0.67198  )

     Computing dynamical matrix for 
                    q = (   0.0000000   0.0000000   0.0000000 )

      9 Sym.Ops. (with q -> -q+G )


     G cutoff = 1376.6300  ( 944598 G-vectors)     FFT grid: ( 80,120,432)

     number of k points=    64  Marzari-Vanderbilt smearing, width (Ry)=  0.0010

     PseudoPot. # 1 for C  read from file:
     ../pseudo/c_pbe_v1.2.uspp.F.UPF
     MD5 check sum: d1aef80898a10debaa0f26306b886e00
     Pseudo is Ultrasoft + core correction, Zval =  4.0
     Generated by new atomic code, or converted to UPF format
     Using radial grid of  721 points,  4 beta functions with: 
                l(1) =   0
                l(2) =   0
                l(3) =   1
                l(4) =   1
     Q(r) pseudized with  8 coefficients,  rinner =    1.100   1.100   1.100


     PseudoPot. # 2 for F  read from file:
     ../pseudo/f_pbe_v1.4.uspp.F.UPF
     MD5 check sum: 4c38b6a325caf53ec0e86aed9459de46
     Pseudo is Ultrasoft, Zval =  7.0
     Generated by new atomic code, or converted to UPF format
     Using radial grid of  799 points,  4 beta functions with: 
                l(1) =   0
                l(2) =   0
                l(3) =   1
                l(4) =   1
     Q(r) pseudized with  8 coefficients,  rinner =    0.950   0.950   0.950


     Mode symmetry, D_2h (mmm)  point group:


     Atomic displacements:
     There are   24 irreducible representations

     Representation     1      1 modes -  Done

     Representation     2      1 modes -  Done

     Representation     3      1 modes -  Done

     Representation     4      1 modes -  Done

     Representation     5      1 modes -  Done

     Representation     6      1 modes -  Done

     Representation     7      1 modes -  Done

     Representation     8      1 modes -  Done

     Representation     9      1 modes -  Done

     Representation    10      1 modes -  Done

     Representation    11      1 modes -  Done

     Representation    12      1 modes -  Done

     Representation    13      1 modes -  Done

     Representation    14      1 modes -  Done

     Representation    15      1 modes -  Done

     Representation    16      1 modes -  Done

     Representation    17      1 modes -  Done

     Representation    18      1 modes -  Done

     Representation    19      1 modes -  Done

     Representation    20      1 modes -  Done

     Representation    21      1 modes -  Done

     Representation    22      1 modes -  Done

     Representation    23      1 modes -  Done

     Representation    24      1 modes -  Done


     PHONON       :      7.76s CPU     24.69s WALL


     Number of q in the star =    1
     List of q in the star:
          1   0.000000000   0.000000000   0.000000000

     Diagonalizing the dynamical matrix

     q = (    0.000000000   0.000000000   0.000000000 ) 

 **************************************************************************
     freq (    1) =      -0.767080 [THz] =     -25.587036 [cm-1]
     freq (    2) =      -0.749179 [THz] =     -24.989938 [cm-1]
     freq (    3) =       0.744494 [THz] =      24.833633 [cm-1]
     freq (    4) =       4.732397 [THz] =     157.855766 [cm-1]
     freq (    5) =       6.848624 [THz] =     228.445517 [cm-1]
     freq (    6) =       6.889422 [THz] =     229.806369 [cm-1]
     freq (    7) =       8.915158 [THz] =     297.377660 [cm-1]
     freq (    8) =       9.171452 [THz] =     305.926699 [cm-1]
     freq (    9) =      12.111598 [THz] =     403.999417 [cm-1]
     freq (   10) =      12.338649 [THz] =     411.573033 [cm-1]
     freq (   11) =      13.255124 [THz] =     442.143337 [cm-1]
     freq (   12) =      14.005051 [THz] =     467.158227 [cm-1]
     freq (   13) =      18.304559 [THz] =     610.574361 [cm-1]
     freq (   14) =      19.008390 [THz] =     634.051658 [cm-1]
     freq (   15) =      22.086068 [THz] =     736.711921 [cm-1]
     freq (   16) =      28.209317 [THz] =     940.961523 [cm-1]
     freq (   17) =      29.947026 [THz] =     998.925249 [cm-1]
     freq (   18) =      31.427049 [THz] =    1048.293532 [cm-1]
     freq (   19) =      33.118127 [THz] =    1104.701805 [cm-1]
     freq (   20) =      33.939816 [THz] =    1132.110406 [cm-1]
     freq (   21) =      34.816656 [THz] =    1161.358642 [cm-1]
     freq (   22) =      35.377796 [THz] =    1180.076258 [cm-1]
     freq (   23) =      35.521136 [THz] =    1184.857553 [cm-1]
     freq (   24) =      36.000664 [THz] =    1200.852896 [cm-1]
 **************************************************************************

     Mode symmetry, D_2h (mmm)  point group:

     freq (   1-   1) =        -25.6  [cm-1]   --> B_2u            I  
     freq (   2-   2) =        -25.0  [cm-1]   --> B_1u            I  
     freq (   3-   3) =         24.8  [cm-1]   --> B_3u            I  
     freq (   4-   4) =        157.9  [cm-1]   --> B_3u            I  
     freq (   5-   5) =        228.4  [cm-1]   --> B_3g            R  
     freq (   6-   6) =        229.8  [cm-1]   --> B_2g            R  
     freq (   7-   7) =        297.4  [cm-1]   --> B_1g            R  
     freq (   8-   8) =        305.9  [cm-1]   --> A_u                
     freq (   9-   9) =        404.0  [cm-1]   --> A_g             R  
     freq (  10-  10) =        411.6  [cm-1]   --> B_1u            I  
     freq (  11-  11) =        442.1  [cm-1]   --> B_2u            I  
     freq (  12-  12) =        467.2  [cm-1]   --> A_g             R  
     freq (  13-  13) =        610.6  [cm-1]   --> B_2g            R  
     freq (  14-  14) =        634.1  [cm-1]   --> B_3g            R  
     freq (  15-  15) =        736.7  [cm-1]   --> B_3u            I  
     freq (  16-  16) =        941.0  [cm-1]   --> A_u                
     freq (  17-  17) =        998.9  [cm-1]   --> B_1u            I  
     freq (  18-  18) =       1048.3  [cm-1]   --> B_2g            R  
     freq (  19-  19) =       1104.7  [cm-1]   --> B_3u            I  
     freq (  20-  20) =       1132.1  [cm-1]   --> A_g             R  
     freq (  21-  21) =       1161.4  [cm-1]   --> B_1g            R  
     freq (  22-  22) =       1180.1  [cm-1]   --> B_2g            R  
     freq (  23-  23) =       1184.9  [cm-1]   --> B_1u            I  
     freq (  24-  24) =       1200.9  [cm-1]   --> A_g             R  

     Calculation of q =    0.0000000   0.0896112   0.0000000
     Subspace diagonalization in iterative solution of the eigenvalue problem:
     a serial algorithm will be used


     Parallelization info
     --------------------
     sticks:   dense  smooth     PW     G-vecs:    dense   smooth      PW
     Min        3444    3444    923               944598   944598  130197
     Max        3445    3445    924               944605   944605  130198
     Sum        6889    6889   1847              1889203  1889203  260395

     Using Slab Decomposition


     Title: 
     default                                                                    


     bravais-lattice index     =            0
     lattice parameter (alat)  =       4.9702  a.u.
     unit-cell volume          =    1084.4437 (a.u.)^3
     number of atoms/cell      =            8
     number of atomic types    =            2
     number of electrons       =        44.00
     number of Kohn-Sham states=           26
     kinetic-energy cutoff     =     550.0000  Ry
     charge density cutoff     =    2200.0000  Ry
     Exchange-correlation= PBE
                           (   1   4   3   4   0   0   0)

     celldm(1)=   4.970237  celldm(2)=   0.000000  celldm(3)=   0.000000
     celldm(4)=   0.000000  celldm(5)=   0.000000  celldm(6)=   0.000000

     crystal axes: (cart. coord. in units of alat)
               a(1) = (   1.000000   0.000000   0.000000 )  
               a(2) = (   0.000000   1.594189   0.000000 )  
               a(3) = (   0.000000   0.000000   5.540333 )  

     reciprocal axes: (cart. coord. in units 2 pi/alat)
               b(1) = (  1.000000  0.000000  0.000000 )  
               b(2) = (  0.000000  0.627278  0.000000 )  
               b(3) = (  0.000000  0.000000  0.180495 )  


     PseudoPot. # 1 for C  read from file:
     ../pseudo/c_pbe_v1.2.uspp.F.UPF
     MD5 check sum: d1aef80898a10debaa0f26306b886e00
     Pseudo is Ultrasoft + core correction, Zval =  4.0
     Generated by new atomic code, or converted to UPF format
     Using radial grid of  721 points,  4 beta functions with: 
                l(1) =   0
                l(2) =   0
                l(3) =   1
                l(4) =   1
     Q(r) pseudized with  8 coefficients,  rinner =    1.100   1.100   1.100


     PseudoPot. # 2 for F  read from file:
     ../pseudo/f_pbe_v1.4.uspp.F.UPF
     MD5 check sum: 4c38b6a325caf53ec0e86aed9459de46
     Pseudo is Ultrasoft, Zval =  7.0
     Generated by new atomic code, or converted to UPF format
     Using radial grid of  799 points,  4 beta functions with: 
                l(1) =   0
                l(2) =   0
                l(3) =   1
                l(4) =   1
     Q(r) pseudized with  8 coefficients,  rinner =    0.950   0.950   0.950


     atomic species   valence    mass     pseudopotential
        C              4.00    12.01070     C ( 1.00)
        F              7.00    18.99840     F ( 1.00)

      8 Sym. Ops., with inversion, found



   Cartesian axes

     site n.     atom                  positions (alat units)
         1           C   tau(   1) = (   0.5000000   0.2256478   0.1937169  )
         2           C   tau(   2) = (   0.0000000   1.0227422  -0.1937169  )
         3           C   tau(   3) = (   0.0000000   0.5714467   0.1937169  )
         4           C   tau(   4) = (   0.5000000   1.3685411  -0.1937169  )
         5           F   tau(   5) = (   0.5000000  -0.0095812  -0.6719762  )
         6           F   tau(   6) = (   0.0000000   0.7875132   0.6719762  )
         7           F   tau(   7) = (   0.0000000   0.8066757  -0.6719762  )
         8           F   tau(   8) = (   0.5000000   0.0095812   0.6719762  )

     number of k points=   224  Marzari-Vanderbilt smearing, width (Ry)=  0.0010

     Number of k-points >= 100: set verbosity='high' to print them.

     Dense  grid:  1889203 G-vectors     FFT dimensions: (  80, 120, 432)

     Estimated max dynamical RAM per process >       1.01 GB

     Estimated total dynamical RAM >       8.08 GB
 ----2D----2D----2D----2D----2D----2D----2D----2D----2D----2D----2D----2D
  The code is running with the 2D cutoff
  Please refer to:
  Sohier, T., Calandra, M., & Mauri, F. (2017), 
  Density functional perturbation theory for gated two-dimensional heterostructures:
  Theoretical developments and application to flexural phonons in graphene.
  Physical Review B, 96(7), 75448. https://doi.org/10.1103/PhysRevB.96.075448
 ----2D----2D----2D----2D----2D----2D----2D----2D----2D----2D----2D----2D

     The potential is recalculated from file :
     /home/ext_chineason_graduate_utm_my/fgzigzag/tmp/_ph0/fgz.save/charge-density


     negative rho (up, down):  2.388E-06 0.000E+00
     Starting wfcs are   32 atomic wfcs

     default                                                                    

     bravais-lattice index     =            0
     lattice parameter (alat)  =       4.9702  a.u.
     unit-cell volume          =    1084.4437 (a.u.)^3
     number of atoms/cell      =            8
     number of atomic types    =            2
     kinetic-energy cut-off    =     550.0000  Ry
     charge density cut-off    =    2200.0000  Ry
     convergence threshold     =      1.0E-14
     beta                      =       0.7000
     number of iterations used =            4
     Exchange-correlation= PBE
                           (   1   4   3   4   0   0   0)


     celldm(1)=    4.97024  celldm(2)=    0.00000  celldm(3)=    0.00000
     celldm(4)=    0.00000  celldm(5)=    0.00000  celldm(6)=    0.00000

     crystal axes: (cart. coord. in units of alat)
               a(1) = (  1.0000  0.0000  0.0000 )  
               a(2) = (  0.0000  1.5942  0.0000 )  
               a(3) = (  0.0000  0.0000  5.5403 )  

     reciprocal axes: (cart. coord. in units 2 pi/alat)
               b(1) = (  1.0000  0.0000  0.0000 )  
               b(2) = (  0.0000  0.6273  0.0000 )  
               b(3) = (  0.0000  0.0000  0.1805 )  


     Atoms inside the unit cell: 

     Cartesian axes

     site n.  atom      mass           positions (alat units)
        1     C   12.0107   tau(    1) = (    0.50000    0.22565    0.19372  )
        2     C   12.0107   tau(    2) = (    0.00000    1.02274   -0.19372  )
        3     C   12.0107   tau(    3) = (    0.00000    0.57145    0.19372  )
        4     C   12.0107   tau(    4) = (    0.50000    1.36854   -0.19372  )
        5     F   18.9984   tau(    5) = (    0.50000   -0.00958   -0.67198  )
        6     F   18.9984   tau(    6) = (    0.00000    0.78751    0.67198  )
        7     F   18.9984   tau(    7) = (    0.00000    0.80668   -0.67198  )
        8     F   18.9984   tau(    8) = (    0.50000    0.00958    0.67198  )

     Computing dynamical matrix for 
                    q = (   0.0000000   0.0896112   0.0000000 )

      4 Sym.Ops. (no q -> -q+G )


     G cutoff = 1376.6300  ( 944598 G-vectors)     FFT grid: ( 80,120,432)

     number of k points=   224  Marzari-Vanderbilt smearing, width (Ry)=  0.0010

     PseudoPot. # 1 for C  read from file:
     ../pseudo/c_pbe_v1.2.uspp.F.UPF
     MD5 check sum: d1aef80898a10debaa0f26306b886e00
     Pseudo is Ultrasoft + core correction, Zval =  4.0
     Generated by new atomic code, or converted to UPF format
     Using radial grid of  721 points,  4 beta functions with: 
                l(1) =   0
                l(2) =   0
                l(3) =   1
                l(4) =   1
     Q(r) pseudized with  8 coefficients,  rinner =    1.100   1.100   1.100


     PseudoPot. # 2 for F  read from file:
     ../pseudo/f_pbe_v1.4.uspp.F.UPF
     MD5 check sum: 4c38b6a325caf53ec0e86aed9459de46
     Pseudo is Ultrasoft, Zval =  7.0
     Generated by new atomic code, or converted to UPF format
     Using radial grid of  799 points,  4 beta functions with: 
                l(1) =   0
                l(2) =   0
                l(3) =   1
                l(4) =   1
     Q(r) pseudized with  8 coefficients,  rinner =    0.950   0.950   0.950


     Mode symmetry, C_2v (mm2)  point group:


     Atomic displacements:
     There are   24 irreducible representations

     Representation     1      1 modes -  Done

     Representation     2      1 modes -  Done

     Representation     3      1 modes -  Done

     Representation     4      1 modes -  Done

     Representation     5      1 modes -  Done

     Representation     6      1 modes -  Done

     Representation     7      1 modes -  Done

     Representation     8      1 modes -  Done

     Representation     9      1 modes -  Done

     Representation    10      1 modes -  Done

     Representation    11      1 modes -  Done

     Representation    12      1 modes -  Done

     Representation    13      1 modes -  Done

     Representation    14      1 modes -  Done

     Representation    15      1 modes -  Done

     Representation    16      1 modes -  Done

     Representation    17      1 modes -  Done

     Representation    18      1 modes -  Done

     Representation    19      1 modes -  Done

     Representation    20      1 modes -  Done

     Representation    21      1 modes -  Done

     Representation    22      1 modes -  Done

     Representation    23      1 modes -  Done

     Representation    24      1 modes -  Done


     PHONON       :     14.62s CPU     33.32s WALL


     Number of q in the star =    2
     List of q in the star:
          1   0.000000000   0.089611176   0.000000000
          2   0.000000000  -0.089611176   0.000000000

     Diagonalizing the dynamical matrix

     q = (    0.000000000   0.089611176   0.000000000 ) 

 **************************************************************************
     freq (    1) =       0.899377 [THz] =      29.999977 [cm-1]
     freq (    2) =       2.247107 [THz] =      74.955424 [cm-1]
     freq (    3) =       3.271611 [THz] =     109.129187 [cm-1]
     freq (    4) =       5.669484 [THz] =     189.113617 [cm-1]
     freq (    5) =       6.956568 [THz] =     232.046121 [cm-1]
     freq (    6) =       7.408353 [THz] =     247.116072 [cm-1]
     freq (    7) =       8.784869 [THz] =     293.031691 [cm-1]
     freq (    8) =       9.093287 [THz] =     303.319389 [cm-1]
     freq (    9) =      11.685481 [THz] =     389.785691 [cm-1]
     freq (   10) =      12.140490 [THz] =     404.963164 [cm-1]
     freq (   11) =      13.452921 [THz] =     448.741139 [cm-1]
     freq (   12) =      13.698474 [THz] =     456.931915 [cm-1]
     freq (   13) =      18.020017 [THz] =     601.083081 [cm-1]
     freq (   14) =      18.553831 [THz] =     618.889201 [cm-1]
     freq (   15) =      23.015085 [THz] =     767.700610 [cm-1]
     freq (   16) =      28.699930 [THz] =     957.326609 [cm-1]
     freq (   17) =      28.811038 [THz] =     961.032785 [cm-1]
     freq (   18) =      32.395883 [THz] =    1080.610344 [cm-1]
     freq (   19) =      33.067015 [THz] =    1102.996890 [cm-1]
     freq (   20) =      34.119745 [THz] =    1138.112185 [cm-1]
     freq (   21) =      34.567764 [THz] =    1153.056494 [cm-1]
     freq (   22) =      34.881605 [THz] =    1163.525092 [cm-1]
     freq (   23) =      35.566170 [THz] =    1186.359718 [cm-1]
     freq (   24) =      35.944004 [THz] =    1198.962917 [cm-1]
 **************************************************************************

     Mode symmetry, C_2v (mm2)  point group:

     freq (   1-   1) =         30.0  [cm-1]   --> B_2  D_4  S_4      
     freq (   2-   2) =         75.0  [cm-1]   --> B_1  D_3  S_3      
     freq (   3-   3) =        109.1  [cm-1]   --> A_1  D_1  S_1      
     freq (   4-   4) =        189.1  [cm-1]   --> A_1  D_1  S_1      
     freq (   5-   5) =        232.0  [cm-1]   --> A_2  D_2  S_2      
     freq (   6-   6) =        247.1  [cm-1]   --> B_2  D_4  S_4      
     freq (   7-   7) =        293.0  [cm-1]   --> B_1  D_3  S_3      
     freq (   8-   8) =        303.3  [cm-1]   --> A_2  D_2  S_2      
     freq (   9-   9) =        389.8  [cm-1]   --> A_1  D_1  S_1      
     freq (  10-  10) =        405.0  [cm-1]   --> B_2  D_4  S_4      
     freq (  11-  11) =        448.7  [cm-1]   --> B_1  D_3  S_3      
     freq (  12-  12) =        456.9  [cm-1]   --> A_1  D_1  S_1      
     freq (  13-  13) =        601.1  [cm-1]   --> B_2  D_4  S_4      
     freq (  14-  14) =        618.9  [cm-1]   --> A_2  D_2  S_2      
     freq (  15-  15) =        767.7  [cm-1]   --> A_1  D_1  S_1      
     freq (  16-  16) =        957.3  [cm-1]   --> A_2  D_2  S_2      
     freq (  17-  17) =        961.0  [cm-1]   --> B_2  D_4  S_4      
     freq (  18-  18) =       1080.6  [cm-1]   --> B_2  D_4  S_4      
     freq (  19-  19) =       1103.0  [cm-1]   --> A_1  D_1  S_1      
     freq (  20-  20) =       1138.1  [cm-1]   --> A_1  D_1  S_1      
     freq (  21-  21) =       1153.1  [cm-1]   --> B_1  D_3  S_3      
     freq (  22-  22) =       1163.5  [cm-1]   --> B_2  D_4  S_4      
     freq (  23-  23) =       1186.4  [cm-1]   --> B_2  D_4  S_4      
     freq (  24-  24) =       1199.0  [cm-1]   --> A_1  D_1  S_1      

     Calculation of q =    0.0000000   0.1792224   0.0000000

     Parallelization info
     --------------------
     sticks:   dense  smooth     PW     G-vecs:    dense   smooth      PW
     Min        3444    3444    925               944598   944598  131351
     Max        3445    3445    926               944605   944605  131364
     Sum        6889    6889   1851              1889203  1889203  262715

     Using Slab Decomposition


     Title: 
     default                                                                    


     bravais-lattice index     =            0
     lattice parameter (alat)  =       4.9702  a.u.
     unit-cell volume          =    1084.4437 (a.u.)^3
     number of atoms/cell      =            8
     number of atomic types    =            2
     number of electrons       =        44.00
     number of Kohn-Sham states=           26
     kinetic-energy cutoff     =     550.0000  Ry
     charge density cutoff     =    2200.0000  Ry
     Exchange-correlation= PBE
                           (   1   4   3   4   0   0   0)

     celldm(1)=   4.970237  celldm(2)=   0.000000  celldm(3)=   0.000000
     celldm(4)=   0.000000  celldm(5)=   0.000000  celldm(6)=   0.000000

     crystal axes: (cart. coord. in units of alat)
               a(1) = (   1.000000   0.000000   0.000000 )  
               a(2) = (   0.000000   1.594189   0.000000 )  
               a(3) = (   0.000000   0.000000   5.540333 )  

     reciprocal axes: (cart. coord. in units 2 pi/alat)
               b(1) = (  1.000000  0.000000  0.000000 )  
               b(2) = (  0.000000  0.627278  0.000000 )  
               b(3) = (  0.000000  0.000000  0.180495 )  


     PseudoPot. # 1 for C  read from file:
     ../pseudo/c_pbe_v1.2.uspp.F.UPF
     MD5 check sum: d1aef80898a10debaa0f26306b886e00
     Pseudo is Ultrasoft + core correction, Zval =  4.0
     Generated by new atomic code, or converted to UPF format
     Using radial grid of  721 points,  4 beta functions with: 
                l(1) =   0
                l(2) =   0
                l(3) =   1
                l(4) =   1
     Q(r) pseudized with  8 coefficients,  rinner =    1.100   1.100   1.100


     PseudoPot. # 2 for F  read from file:
     ../pseudo/f_pbe_v1.4.uspp.F.UPF
     MD5 check sum: 4c38b6a325caf53ec0e86aed9459de46
     Pseudo is Ultrasoft, Zval =  7.0
     Generated by new atomic code, or converted to UPF format
     Using radial grid of  799 points,  4 beta functions with: 
                l(1) =   0
                l(2) =   0
                l(3) =   1
                l(4) =   1
     Q(r) pseudized with  8 coefficients,  rinner =    0.950   0.950   0.950


     atomic species   valence    mass     pseudopotential
        C              4.00    12.01070     C ( 1.00)
        F              7.00    18.99840     F ( 1.00)

      8 Sym. Ops., with inversion, found



   Cartesian axes

     site n.     atom                  positions (alat units)
         1           C   tau(   1) = (   0.5000000   0.2256478   0.1937169  )
         2           C   tau(   2) = (   0.0000000   1.0227422  -0.1937169  )
         3           C   tau(   3) = (   0.0000000   0.5714467   0.1937169  )
         4           C   tau(   4) = (   0.5000000   1.3685411  -0.1937169  )
         5           F   tau(   5) = (   0.5000000  -0.0095812  -0.6719762  )
         6           F   tau(   6) = (   0.0000000   0.7875132   0.6719762  )
         7           F   tau(   7) = (   0.0000000   0.8066757  -0.6719762  )
         8           F   tau(   8) = (   0.5000000   0.0095812   0.6719762  )

     number of k points=   224  Marzari-Vanderbilt smearing, width (Ry)=  0.0010

     Number of k-points >= 100: set verbosity='high' to print them.

     Dense  grid:  1889203 G-vectors     FFT dimensions: (  80, 120, 432)

     Estimated max dynamical RAM per process >       1.01 GB

     Estimated total dynamical RAM >       8.08 GB
 ----2D----2D----2D----2D----2D----2D----2D----2D----2D----2D----2D----2D
  The code is running with the 2D cutoff
  Please refer to:
  Sohier, T., Calandra, M., & Mauri, F. (2017), 
  Density functional perturbation theory for gated two-dimensional heterostructures:
  Theoretical developments and application to flexural phonons in graphene.
  Physical Review B, 96(7), 75448. https://doi.org/10.1103/PhysRevB.96.075448
 ----2D----2D----2D----2D----2D----2D----2D----2D----2D----2D----2D----2D

     The potential is recalculated from file :
     /home/ext_chineason_graduate_utm_my/fgzigzag/tmp/_ph0/fgz.save/charge-density


     negative rho (up, down):  2.388E-06 0.000E+00
     Starting wfcs are   32 atomic wfcs

     default                                                                    

     bravais-lattice index     =            0
     lattice parameter (alat)  =       4.9702  a.u.
     unit-cell volume          =    1084.4437 (a.u.)^3
     number of atoms/cell      =            8
     number of atomic types    =            2
     kinetic-energy cut-off    =     550.0000  Ry
     charge density cut-off    =    2200.0000  Ry
     convergence threshold     =      1.0E-14
     beta                      =       0.7000
     number of iterations used =            4
     Exchange-correlation= PBE
                           (   1   4   3   4   0   0   0)


     celldm(1)=    4.97024  celldm(2)=    0.00000  celldm(3)=    0.00000
     celldm(4)=    0.00000  celldm(5)=    0.00000  celldm(6)=    0.00000

     crystal axes: (cart. coord. in units of alat)
               a(1) = (  1.0000  0.0000  0.0000 )  
               a(2) = (  0.0000  1.5942  0.0000 )  
               a(3) = (  0.0000  0.0000  5.5403 )  

     reciprocal axes: (cart. coord. in units 2 pi/alat)
               b(1) = (  1.0000  0.0000  0.0000 )  
               b(2) = (  0.0000  0.6273  0.0000 )  
               b(3) = (  0.0000  0.0000  0.1805 )  


     Atoms inside the unit cell: 

     Cartesian axes

     site n.  atom      mass           positions (alat units)
        1     C   12.0107   tau(    1) = (    0.50000    0.22565    0.19372  )
        2     C   12.0107   tau(    2) = (    0.00000    1.02274   -0.19372  )
        3     C   12.0107   tau(    3) = (    0.00000    0.57145    0.19372  )
        4     C   12.0107   tau(    4) = (    0.50000    1.36854   -0.19372  )
        5     F   18.9984   tau(    5) = (    0.50000   -0.00958   -0.67198  )
        6     F   18.9984   tau(    6) = (    0.00000    0.78751    0.67198  )
        7     F   18.9984   tau(    7) = (    0.00000    0.80668   -0.67198  )
        8     F   18.9984   tau(    8) = (    0.50000    0.00958    0.67198  )

     Computing dynamical matrix for 
                    q = (   0.0000000   0.1792224   0.0000000 )

      4 Sym.Ops. (no q -> -q+G )


     G cutoff = 1376.6300  ( 944598 G-vectors)     FFT grid: ( 80,120,432)

     number of k points=   224  Marzari-Vanderbilt smearing, width (Ry)=  0.0010

     PseudoPot. # 1 for C  read from file:
     ../pseudo/c_pbe_v1.2.uspp.F.UPF
     MD5 check sum: d1aef80898a10debaa0f26306b886e00
     Pseudo is Ultrasoft + core correction, Zval =  4.0
     Generated by new atomic code, or converted to UPF format
     Using radial grid of  721 points,  4 beta functions with: 
                l(1) =   0
                l(2) =   0
                l(3) =   1
                l(4) =   1
     Q(r) pseudized with  8 coefficients,  rinner =    1.100   1.100   1.100


     PseudoPot. # 2 for F  read from file:
     ../pseudo/f_pbe_v1.4.uspp.F.UPF
     MD5 check sum: 4c38b6a325caf53ec0e86aed9459de46
     Pseudo is Ultrasoft, Zval =  7.0
     Generated by new atomic code, or converted to UPF format
     Using radial grid of  799 points,  4 beta functions with: 
                l(1) =   0
                l(2) =   0
                l(3) =   1
                l(4) =   1
     Q(r) pseudized with  8 coefficients,  rinner =    0.950   0.950   0.950


     Mode symmetry, C_2v (mm2)  point group:


     Atomic displacements:
     There are   24 irreducible representations

     Representation     1      1 modes -  Done

     Representation     2      1 modes -  Done

     Representation     3      1 modes -  Done

     Representation     4      1 modes -  Done

     Representation     5      1 modes -  Done

     Representation     6      1 modes -  Done

     Representation     7      1 modes -  Done

     Representation     8      1 modes -  Done

     Representation     9      1 modes -  Done

     Representation    10      1 modes -  Done

     Representation    11      1 modes -  Done

     Representation    12      1 modes -  Done

     Representation    13      1 modes -  Done

     Representation    14      1 modes -  Done

     Representation    15      1 modes -  Done

     Representation    16      1 modes -  Done

     Representation    17      1 modes -  Done

     Representation    18      1 modes -  Done

     Representation    19      1 modes -  Done

     Representation    20      1 modes -  Done

     Representation    21      1 modes -  Done

     Representation    22      1 modes -  Done

     Representation    23      1 modes -  Done

     Representation    24      1 modes -  Done


     PHONON       :     21.37s CPU     41.85s WALL


     Number of q in the star =    2
     List of q in the star:
          1   0.000000000   0.179222352   0.000000000
          2   0.000000000  -0.179222352   0.000000000

     Diagonalizing the dynamical matrix

     q = (    0.000000000   0.179222352   0.000000000 ) 

 **************************************************************************
     freq (    1) =       2.323418 [THz] =      77.500895 [cm-1]
     freq (    2) =       4.390571 [THz] =     146.453676 [cm-1]
     freq (    3) =       4.893481 [THz] =     163.228955 [cm-1]
     freq (    4) =       6.916730 [THz] =     230.717264 [cm-1]
     freq (    5) =       8.378596 [THz] =     279.479884 [cm-1]
     freq (    6) =       8.476246 [THz] =     282.737121 [cm-1]
     freq (    7) =       8.501300 [THz] =     283.572855 [cm-1]
     freq (    8) =       8.825536 [THz] =     294.388198 [cm-1]
     freq (    9) =      10.833753 [THz] =     361.375112 [cm-1]
     freq (   10) =      11.635971 [THz] =     388.134229 [cm-1]
     freq (   11) =      13.309832 [THz] =     443.968209 [cm-1]
     freq (   12) =      14.052061 [THz] =     468.726297 [cm-1]
     freq (   13) =      17.165965 [THz] =     572.594947 [cm-1]
     freq (   14) =      17.449042 [THz] =     582.037403 [cm-1]
     freq (   15) =      23.901080 [THz] =     797.254227 [cm-1]
     freq (   16) =      27.301362 [THz] =     910.675418 [cm-1]
     freq (   17) =      29.889703 [THz] =     997.013160 [cm-1]
     freq (   18) =      32.900300 [THz] =    1097.435868 [cm-1]
     freq (   19) =      33.379227 [THz] =    1113.411163 [cm-1]
     freq (   20) =      33.837204 [THz] =    1128.687627 [cm-1]
     freq (   21) =      34.406753 [THz] =    1147.685741 [cm-1]
     freq (   22) =      34.500073 [THz] =    1150.798569 [cm-1]
     freq (   23) =      35.503174 [THz] =    1184.258407 [cm-1]
     freq (   24) =      35.771881 [THz] =    1193.221517 [cm-1]
 **************************************************************************

     Mode symmetry, C_2v (mm2)  point group:

     freq (   1-   1) =         77.5  [cm-1]   --> B_2  D_4  S_4      
     freq (   2-   2) =        146.5  [cm-1]   --> B_1  D_3  S_3      
     freq (   3-   3) =        163.2  [cm-1]   --> A_1  D_1  S_1      
     freq (   4-   4) =        230.7  [cm-1]   --> A_2  D_2  S_2      
     freq (   5-   5) =        279.5  [cm-1]   --> A_1  D_1  S_1      
     freq (   6-   6) =        282.7  [cm-1]   --> B_1  D_3  S_3      
     freq (   7-   7) =        283.6  [cm-1]   --> B_2  D_4  S_4      
     freq (   8-   8) =        294.4  [cm-1]   --> A_2  D_2  S_2      
     freq (   9-   9) =        361.4  [cm-1]   --> A_1  D_1  S_1      
     freq (  10-  10) =        388.1  [cm-1]   --> B_2  D_4  S_4      
     freq (  11-  11) =        444.0  [cm-1]   --> A_1  D_1  S_1      
     freq (  12-  12) =        468.7  [cm-1]   --> B_1  D_3  S_3      
     freq (  13-  13) =        572.6  [cm-1]   --> B_2  D_4  S_4      
     freq (  14-  14) =        582.0  [cm-1]   --> A_2  D_2  S_2      
     freq (  15-  15) =        797.3  [cm-1]   --> A_1  D_1  S_1      
     freq (  16-  16) =        910.7  [cm-1]   --> B_2  D_4  S_4      
     freq (  17-  17) =        997.0  [cm-1]   --> A_2  D_2  S_2      
     freq (  18-  18) =       1097.4  [cm-1]   --> A_1  D_1  S_1      
     freq (  19-  19) =       1113.4  [cm-1]   --> B_2  D_4  S_4      
     freq (  20-  20) =       1128.7  [cm-1]   --> B_1  D_3  S_3      
     freq (  21-  21) =       1147.7  [cm-1]   --> B_2  D_4  S_4      
     freq (  22-  22) =       1150.8  [cm-1]   --> A_1  D_1  S_1      
     freq (  23-  23) =       1184.3  [cm-1]   --> B_2  D_4  S_4      
     freq (  24-  24) =       1193.2  [cm-1]   --> A_1  D_1  S_1      

     Calculation of q =    0.0000000   0.2688335   0.0000000

     Parallelization info
     --------------------
     sticks:   dense  smooth     PW     G-vecs:    dense   smooth      PW
     Min        3444    3444    937               944598   944598  132799
     Max        3445    3445    938               944605   944605  132804
     Sum        6889    6889   1875              1889203  1889203  265603

     Using Slab Decomposition


     Title: 
     default                                                                    


     bravais-lattice index     =            0
     lattice parameter (alat)  =       4.9702  a.u.
     unit-cell volume          =    1084.4437 (a.u.)^3
     number of atoms/cell      =            8
     number of atomic types    =            2
     number of electrons       =        44.00
     number of Kohn-Sham states=           26
     kinetic-energy cutoff     =     550.0000  Ry
     charge density cutoff     =    2200.0000  Ry
     Exchange-correlation= PBE
                           (   1   4   3   4   0   0   0)

     celldm(1)=   4.970237  celldm(2)=   0.000000  celldm(3)=   0.000000
     celldm(4)=   0.000000  celldm(5)=   0.000000  celldm(6)=   0.000000

     crystal axes: (cart. coord. in units of alat)
               a(1) = (   1.000000   0.000000   0.000000 )  
               a(2) = (   0.000000   1.594189   0.000000 )  
               a(3) = (   0.000000   0.000000   5.540333 )  

     reciprocal axes: (cart. coord. in units 2 pi/alat)
               b(1) = (  1.000000  0.000000  0.000000 )  
               b(2) = (  0.000000  0.627278  0.000000 )  
               b(3) = (  0.000000  0.000000  0.180495 )  


     PseudoPot. # 1 for C  read from file:
     ../pseudo/c_pbe_v1.2.uspp.F.UPF
     MD5 check sum: d1aef80898a10debaa0f26306b886e00
     Pseudo is Ultrasoft + core correction, Zval =  4.0
     Generated by new atomic code, or converted to UPF format
     Using radial grid of  721 points,  4 beta functions with: 
                l(1) =   0
                l(2) =   0
                l(3) =   1
                l(4) =   1
     Q(r) pseudized with  8 coefficients,  rinner =    1.100   1.100   1.100


     PseudoPot. # 2 for F  read from file:
     ../pseudo/f_pbe_v1.4.uspp.F.UPF
     MD5 check sum: 4c38b6a325caf53ec0e86aed9459de46
     Pseudo is Ultrasoft, Zval =  7.0
     Generated by new atomic code, or converted to UPF format
     Using radial grid of  799 points,  4 beta functions with: 
                l(1) =   0
                l(2) =   0
                l(3) =   1
                l(4) =   1
     Q(r) pseudized with  8 coefficients,  rinner =    0.950   0.950   0.950


     atomic species   valence    mass     pseudopotential
        C              4.00    12.01070     C ( 1.00)
        F              7.00    18.99840     F ( 1.00)

      8 Sym. Ops., with inversion, found



   Cartesian axes

     site n.     atom                  positions (alat units)
         1           C   tau(   1) = (   0.5000000   0.2256478   0.1937169  )
         2           C   tau(   2) = (   0.0000000   1.0227422  -0.1937169  )
         3           C   tau(   3) = (   0.0000000   0.5714467   0.1937169  )
         4           C   tau(   4) = (   0.5000000   1.3685411  -0.1937169  )
         5           F   tau(   5) = (   0.5000000  -0.0095812  -0.6719762  )
         6           F   tau(   6) = (   0.0000000   0.7875132   0.6719762  )
         7           F   tau(   7) = (   0.0000000   0.8066757  -0.6719762  )
         8           F   tau(   8) = (   0.5000000   0.0095812   0.6719762  )

     number of k points=   224  Marzari-Vanderbilt smearing, width (Ry)=  0.0010

     Number of k-points >= 100: set verbosity='high' to print them.

     Dense  grid:  1889203 G-vectors     FFT dimensions: (  80, 120, 432)

     Estimated max dynamical RAM per process >       1.01 GB

     Estimated total dynamical RAM >       8.08 GB
 ----2D----2D----2D----2D----2D----2D----2D----2D----2D----2D----2D----2D
  The code is running with the 2D cutoff
  Please refer to:
  Sohier, T., Calandra, M., & Mauri, F. (2017), 
  Density functional perturbation theory for gated two-dimensional heterostructures:
  Theoretical developments and application to flexural phonons in graphene.
  Physical Review B, 96(7), 75448. https://doi.org/10.1103/PhysRevB.96.075448
 ----2D----2D----2D----2D----2D----2D----2D----2D----2D----2D----2D----2D

     The potential is recalculated from file :
     /home/ext_chineason_graduate_utm_my/fgzigzag/tmp/_ph0/fgz.save/charge-density


     negative rho (up, down):  2.388E-06 0.000E+00
     Starting wfcs are   32 atomic wfcs

     default                                                                    

     bravais-lattice index     =            0
     lattice parameter (alat)  =       4.9702  a.u.
     unit-cell volume          =    1084.4437 (a.u.)^3
     number of atoms/cell      =            8
     number of atomic types    =            2
     kinetic-energy cut-off    =     550.0000  Ry
     charge density cut-off    =    2200.0000  Ry
     convergence threshold     =      1.0E-14
     beta                      =       0.7000
     number of iterations used =            4
     Exchange-correlation= PBE
                           (   1   4   3   4   0   0   0)


     celldm(1)=    4.97024  celldm(2)=    0.00000  celldm(3)=    0.00000
     celldm(4)=    0.00000  celldm(5)=    0.00000  celldm(6)=    0.00000

     crystal axes: (cart. coord. in units of alat)
               a(1) = (  1.0000  0.0000  0.0000 )  
               a(2) = (  0.0000  1.5942  0.0000 )  
               a(3) = (  0.0000  0.0000  5.5403 )  

     reciprocal axes: (cart. coord. in units 2 pi/alat)
               b(1) = (  1.0000  0.0000  0.0000 )  
               b(2) = (  0.0000  0.6273  0.0000 )  
               b(3) = (  0.0000  0.0000  0.1805 )  


     Atoms inside the unit cell: 

     Cartesian axes

     site n.  atom      mass           positions (alat units)
        1     C   12.0107   tau(    1) = (    0.50000    0.22565    0.19372  )
        2     C   12.0107   tau(    2) = (    0.00000    1.02274   -0.19372  )
        3     C   12.0107   tau(    3) = (    0.00000    0.57145    0.19372  )
        4     C   12.0107   tau(    4) = (    0.50000    1.36854   -0.19372  )
        5     F   18.9984   tau(    5) = (    0.50000   -0.00958   -0.67198  )
        6     F   18.9984   tau(    6) = (    0.00000    0.78751    0.67198  )
        7     F   18.9984   tau(    7) = (    0.00000    0.80668   -0.67198  )
        8     F   18.9984   tau(    8) = (    0.50000    0.00958    0.67198  )

     Computing dynamical matrix for 
                    q = (   0.0000000   0.2688335   0.0000000 )

      4 Sym.Ops. (no q -> -q+G )


     G cutoff = 1376.6300  ( 944598 G-vectors)     FFT grid: ( 80,120,432)

     number of k points=   224  Marzari-Vanderbilt smearing, width (Ry)=  0.0010

     PseudoPot. # 1 for C  read from file:
     ../pseudo/c_pbe_v1.2.uspp.F.UPF
     MD5 check sum: d1aef80898a10debaa0f26306b886e00
     Pseudo is Ultrasoft + core correction, Zval =  4.0
     Generated by new atomic code, or converted to UPF format
     Using radial grid of  721 points,  4 beta functions with: 
                l(1) =   0
                l(2) =   0
                l(3) =   1
                l(4) =   1
     Q(r) pseudized with  8 coefficients,  rinner =    1.100   1.100   1.100


     PseudoPot. # 2 for F  read from file:
     ../pseudo/f_pbe_v1.4.uspp.F.UPF
     MD5 check sum: 4c38b6a325caf53ec0e86aed9459de46
     Pseudo is Ultrasoft, Zval =  7.0
     Generated by new atomic code, or converted to UPF format
     Using radial grid of  799 points,  4 beta functions with: 
                l(1) =   0
                l(2) =   0
                l(3) =   1
                l(4) =   1
     Q(r) pseudized with  8 coefficients,  rinner =    0.950   0.950   0.950


     Mode symmetry, C_2v (mm2)  point group:


     Atomic displacements:
     There are   24 irreducible representations

     Representation     1      1 modes -  Done

     Representation     2      1 modes -  Done

     Representation     3      1 modes -  Done

     Representation     4      1 modes -  Done

     Representation     5      1 modes -  Done

     Representation     6      1 modes -  Done

     Representation     7      1 modes -  Done

     Representation     8      1 modes -  Done

     Representation     9      1 modes -  Done

     Representation    10      1 modes -  Done

     Representation    11      1 modes -  Done

     Representation    12      1 modes -  Done

     Representation    13      1 modes -  Done

     Representation    14      1 modes -  Done

     Representation    15      1 modes -  Done

     Representation    16      1 modes -  Done

     Representation    17      1 modes -  Done

     Representation    18      1 modes -  Done

     Representation    19      1 modes -  Done

     Representation    20      1 modes -  Done

     Representation    21      1 modes -  Done

     Representation    22      1 modes -  Done

     Representation    23      1 modes -  Done

     Representation    24      1 modes -  Done


     PHONON       :     28.13s CPU     50.30s WALL


     Number of q in the star =    2
     List of q in the star:
          1   0.000000000   0.268833528   0.000000000
          2   0.000000000  -0.268833528   0.000000000

     Diagonalizing the dynamical matrix

     q = (    0.000000000   0.268833528   0.000000000 ) 

 **************************************************************************
     freq (    1) =       4.124876 [THz] =     137.591067 [cm-1]
     freq (    2) =       5.231003 [THz] =     174.487469 [cm-1]
     freq (    3) =       5.998336 [THz] =     200.082944 [cm-1]
     freq (    4) =       6.767550 [THz] =     225.741163 [cm-1]
     freq (    5) =       8.239157 [THz] =     274.828705 [cm-1]
     freq (    6) =       8.403323 [THz] =     280.304677 [cm-1]
     freq (    7) =       9.424047 [THz] =     314.352371 [cm-1]
     freq (    8) =       9.730582 [THz] =     324.577265 [cm-1]
     freq (    9) =      10.822758 [THz] =     361.008362 [cm-1]
     freq (   10) =      11.162163 [THz] =     372.329669 [cm-1]
     freq (   11) =      13.739817 [THz] =     458.310962 [cm-1]
     freq (   12) =      14.971986 [THz] =     499.411699 [cm-1]
     freq (   13) =      15.618460 [THz] =     520.975752 [cm-1]
     freq (   14) =      16.153507 [THz] =     538.822980 [cm-1]
     freq (   15) =      24.898704 [THz] =     830.531382 [cm-1]
     freq (   16) =      25.990729 [THz] =     866.957393 [cm-1]
     freq (   17) =      31.331200 [THz] =    1045.096353 [cm-1]
     freq (   18) =      32.713188 [THz] =    1091.194487 [cm-1]
     freq (   19) =      32.965880 [THz] =    1099.623393 [cm-1]
     freq (   20) =      33.273012 [THz] =    1109.868210 [cm-1]
     freq (   21) =      34.815040 [THz] =    1161.304747 [cm-1]
     freq (   22) =      34.893062 [THz] =    1163.907249 [cm-1]
     freq (   23) =      35.291064 [THz] =    1177.183197 [cm-1]
     freq (   24) =      35.433974 [THz] =    1181.950139 [cm-1]
 **************************************************************************

     Mode symmetry, C_2v (mm2)  point group:

     freq (   1-   1) =        137.6  [cm-1]   --> B_2  D_4  S_4      
     freq (   2-   2) =        174.5  [cm-1]   --> A_1  D_1  S_1      
     freq (   3-   3) =        200.1  [cm-1]   --> B_1  D_3  S_3      
     freq (   4-   4) =        225.7  [cm-1]   --> A_2  D_2  S_2      
     freq (   5-   5) =        274.8  [cm-1]   --> B_1  D_3  S_3      
     freq (   6-   6) =        280.3  [cm-1]   --> A_2  D_2  S_2      
     freq (   7-   7) =        314.4  [cm-1]   --> B_2  D_4  S_4      
     freq (   8-   8) =        324.6  [cm-1]   --> A_1  D_1  S_1      
     freq (   9-   9) =        361.0  [cm-1]   --> A_1  D_1  S_1      
     freq (  10-  10) =        372.3  [cm-1]   --> B_2  D_4  S_4      
     freq (  11-  11) =        458.3  [cm-1]   --> A_1  D_1  S_1      
     freq (  12-  12) =        499.4  [cm-1]   --> B_1  D_3  S_3      
     freq (  13-  13) =        521.0  [cm-1]   --> B_2  D_4  S_4      
     freq (  14-  14) =        538.8  [cm-1]   --> A_2  D_2  S_2      
     freq (  15-  15) =        830.5  [cm-1]   --> A_1  D_1  S_1      
     freq (  16-  16) =        867.0  [cm-1]   --> B_2  D_4  S_4      
     freq (  17-  17) =       1045.1  [cm-1]   --> A_2  D_2  S_2      
     freq (  18-  18) =       1091.2  [cm-1]   --> B_1  D_3  S_3      
     freq (  19-  19) =       1099.6  [cm-1]   --> A_1  D_1  S_1      
     freq (  20-  20) =       1109.9  [cm-1]   --> B_2  D_4  S_4      
     freq (  21-  21) =       1161.3  [cm-1]   --> B_2  D_4  S_4      
     freq (  22-  22) =       1163.9  [cm-1]   --> A_1  D_1  S_1      
     freq (  23-  23) =       1177.2  [cm-1]   --> B_2  D_4  S_4      
     freq (  24-  24) =       1182.0  [cm-1]   --> A_1  D_1  S_1      

     Calculation of q =    0.1428571   0.0000000   0.0000000

     Parallelization info
     --------------------
     sticks:   dense  smooth     PW     G-vecs:    dense   smooth      PW
     Min        3444    3444    925               944598   944598  130967
     Max        3445    3445    926               944605   944605  130976
     Sum        6889    6889   1851              1889203  1889203  261943

     Using Slab Decomposition


     Title: 
     default                                                                    


     bravais-lattice index     =            0
     lattice parameter (alat)  =       4.9702  a.u.
     unit-cell volume          =    1084.4437 (a.u.)^3
     number of atoms/cell      =            8
     number of atomic types    =            2
     number of electrons       =        44.00
     number of Kohn-Sham states=           26
     kinetic-energy cutoff     =     550.0000  Ry
     charge density cutoff     =    2200.0000  Ry
     Exchange-correlation= PBE
                           (   1   4   3   4   0   0   0)

     celldm(1)=   4.970237  celldm(2)=   0.000000  celldm(3)=   0.000000
     celldm(4)=   0.000000  celldm(5)=   0.000000  celldm(6)=   0.000000

     crystal axes: (cart. coord. in units of alat)
               a(1) = (   1.000000   0.000000   0.000000 )  
               a(2) = (   0.000000   1.594189   0.000000 )  
               a(3) = (   0.000000   0.000000   5.540333 )  

     reciprocal axes: (cart. coord. in units 2 pi/alat)
               b(1) = (  1.000000  0.000000  0.000000 )  
               b(2) = (  0.000000  0.627278  0.000000 )  
               b(3) = (  0.000000  0.000000  0.180495 )  


     PseudoPot. # 1 for C  read from file:
     ../pseudo/c_pbe_v1.2.uspp.F.UPF
     MD5 check sum: d1aef80898a10debaa0f26306b886e00
     Pseudo is Ultrasoft + core correction, Zval =  4.0
     Generated by new atomic code, or converted to UPF format
     Using radial grid of  721 points,  4 beta functions with: 
                l(1) =   0
                l(2) =   0
                l(3) =   1
                l(4) =   1
     Q(r) pseudized with  8 coefficients,  rinner =    1.100   1.100   1.100


     PseudoPot. # 2 for F  read from file:
     ../pseudo/f_pbe_v1.4.uspp.F.UPF
     MD5 check sum: 4c38b6a325caf53ec0e86aed9459de46
     Pseudo is Ultrasoft, Zval =  7.0
     Generated by new atomic code, or converted to UPF format
     Using radial grid of  799 points,  4 beta functions with: 
                l(1) =   0
                l(2) =   0
                l(3) =   1
                l(4) =   1
     Q(r) pseudized with  8 coefficients,  rinner =    0.950   0.950   0.950


     atomic species   valence    mass     pseudopotential
        C              4.00    12.01070     C ( 1.00)
        F              7.00    18.99840     F ( 1.00)

      8 Sym. Ops., with inversion, found



   Cartesian axes

     site n.     atom                  positions (alat units)
         1           C   tau(   1) = (   0.5000000   0.2256478   0.1937169  )
         2           C   tau(   2) = (   0.0000000   1.0227422  -0.1937169  )
         3           C   tau(   3) = (   0.0000000   0.5714467   0.1937169  )
         4           C   tau(   4) = (   0.5000000   1.3685411  -0.1937169  )
         5           F   tau(   5) = (   0.5000000  -0.0095812  -0.6719762  )
         6           F   tau(   6) = (   0.0000000   0.7875132   0.6719762  )
         7           F   tau(   7) = (   0.0000000   0.8066757  -0.6719762  )
         8           F   tau(   8) = (   0.5000000   0.0095812   0.6719762  )

     number of k points=   224  Marzari-Vanderbilt smearing, width (Ry)=  0.0010

     Number of k-points >= 100: set verbosity='high' to print them.

     Dense  grid:  1889203 G-vectors     FFT dimensions: (  80, 120, 432)

     Estimated max dynamical RAM per process >       1.01 GB

     Estimated total dynamical RAM >       8.08 GB
 ----2D----2D----2D----2D----2D----2D----2D----2D----2D----2D----2D----2D
  The code is running with the 2D cutoff
  Please refer to:
  Sohier, T., Calandra, M., & Mauri, F. (2017), 
  Density functional perturbation theory for gated two-dimensional heterostructures:
  Theoretical developments and application to flexural phonons in graphene.
  Physical Review B, 96(7), 75448. https://doi.org/10.1103/PhysRevB.96.075448
 ----2D----2D----2D----2D----2D----2D----2D----2D----2D----2D----2D----2D

     The potential is recalculated from file :
     /home/ext_chineason_graduate_utm_my/fgzigzag/tmp/_ph0/fgz.save/charge-density


     negative rho (up, down):  2.388E-06 0.000E+00
     Starting wfcs are   32 atomic wfcs

     default                                                                    

     bravais-lattice index     =            0
     lattice parameter (alat)  =       4.9702  a.u.
     unit-cell volume          =    1084.4437 (a.u.)^3
     number of atoms/cell      =            8
     number of atomic types    =            2
     kinetic-energy cut-off    =     550.0000  Ry
     charge density cut-off    =    2200.0000  Ry
     convergence threshold     =      1.0E-14
     beta                      =       0.7000
     number of iterations used =            4
     Exchange-correlation= PBE
                           (   1   4   3   4   0   0   0)


     celldm(1)=    4.97024  celldm(2)=    0.00000  celldm(3)=    0.00000
     celldm(4)=    0.00000  celldm(5)=    0.00000  celldm(6)=    0.00000

     crystal axes: (cart. coord. in units of alat)
               a(1) = (  1.0000  0.0000  0.0000 )  
               a(2) = (  0.0000  1.5942  0.0000 )  
               a(3) = (  0.0000  0.0000  5.5403 )  

     reciprocal axes: (cart. coord. in units 2 pi/alat)
               b(1) = (  1.0000  0.0000  0.0000 )  
               b(2) = (  0.0000  0.6273  0.0000 )  
               b(3) = (  0.0000  0.0000  0.1805 )  


     Atoms inside the unit cell: 

     Cartesian axes

     site n.  atom      mass           positions (alat units)
        1     C   12.0107   tau(    1) = (    0.50000    0.22565    0.19372  )
        2     C   12.0107   tau(    2) = (    0.00000    1.02274   -0.19372  )
        3     C   12.0107   tau(    3) = (    0.00000    0.57145    0.19372  )
        4     C   12.0107   tau(    4) = (    0.50000    1.36854   -0.19372  )
        5     F   18.9984   tau(    5) = (    0.50000   -0.00958   -0.67198  )
        6     F   18.9984   tau(    6) = (    0.00000    0.78751    0.67198  )
        7     F   18.9984   tau(    7) = (    0.00000    0.80668   -0.67198  )
        8     F   18.9984   tau(    8) = (    0.50000    0.00958    0.67198  )

     Computing dynamical matrix for 
                    q = (   0.1428571   0.0000000   0.0000000 )

      4 Sym.Ops. (no q -> -q+G )


     G cutoff = 1376.6300  ( 944598 G-vectors)     FFT grid: ( 80,120,432)

     number of k points=   224  Marzari-Vanderbilt smearing, width (Ry)=  0.0010

     PseudoPot. # 1 for C  read from file:
     ../pseudo/c_pbe_v1.2.uspp.F.UPF
     MD5 check sum: d1aef80898a10debaa0f26306b886e00
     Pseudo is Ultrasoft + core correction, Zval =  4.0
     Generated by new atomic code, or converted to UPF format
     Using radial grid of  721 points,  4 beta functions with: 
                l(1) =   0
                l(2) =   0
                l(3) =   1
                l(4) =   1
     Q(r) pseudized with  8 coefficients,  rinner =    1.100   1.100   1.100


     PseudoPot. # 2 for F  read from file:
     ../pseudo/f_pbe_v1.4.uspp.F.UPF
     MD5 check sum: 4c38b6a325caf53ec0e86aed9459de46
     Pseudo is Ultrasoft, Zval =  7.0
     Generated by new atomic code, or converted to UPF format
     Using radial grid of  799 points,  4 beta functions with: 
                l(1) =   0
                l(2) =   0
                l(3) =   1
                l(4) =   1
     Q(r) pseudized with  8 coefficients,  rinner =    0.950   0.950   0.950


     Mode symmetry, C_2v (mm2)  point group:


     Atomic displacements:
     There are   24 irreducible representations

     Representation     1      1 modes -  Done

     Representation     2      1 modes -  Done

     Representation     3      1 modes -  Done

     Representation     4      1 modes -  Done

     Representation     5      1 modes -  Done

     Representation     6      1 modes -  Done

     Representation     7      1 modes -  Done

     Representation     8      1 modes -  Done

     Representation     9      1 modes -  Done

     Representation    10      1 modes -  Done

     Representation    11      1 modes -  Done

     Representation    12      1 modes -  Done

     Representation    13      1 modes -  Done

     Representation    14      1 modes -  Done

     Representation    15      1 modes -  Done

     Representation    16      1 modes -  Done

     Representation    17      1 modes -  Done

     Representation    18      1 modes -  Done

     Representation    19      1 modes -  Done

     Representation    20      1 modes -  Done

     Representation    21      1 modes -  Done

     Representation    22      1 modes -  Done

     Representation    23      1 modes -  Done

     Representation    24      1 modes -  Done


     PHONON       :     34.91s CPU     58.86s WALL


     Number of q in the star =    2
     List of q in the star:
          1   0.142857143   0.000000000   0.000000000
          2  -0.142857143   0.000000000   0.000000000

     Diagonalizing the dynamical matrix

     q = (    0.142857143   0.000000000   0.000000000 ) 

 **************************************************************************
     freq (    1) =       1.859719 [THz] =      62.033532 [cm-1]
     freq (    2) =       3.350023 [THz] =     111.744724 [cm-1]
     freq (    3) =       5.431912 [THz] =     181.189073 [cm-1]
     freq (    4) =       5.698173 [THz] =     190.070591 [cm-1]
     freq (    5) =       7.232428 [THz] =     241.247843 [cm-1]
     freq (    6) =       8.206824 [THz] =     273.750195 [cm-1]
     freq (    7) =       9.391267 [THz] =     313.258933 [cm-1]
     freq (    8) =       9.541327 [THz] =     318.264423 [cm-1]
     freq (    9) =      11.747603 [THz] =     391.857869 [cm-1]
     freq (   10) =      12.332666 [THz] =     411.373445 [cm-1]
     freq (   11) =      13.647699 [THz] =     455.238232 [cm-1]
     freq (   12) =      16.547810 [THz] =     551.975520 [cm-1]
     freq (   13) =      18.046754 [THz] =     601.974905 [cm-1]
     freq (   14) =      20.933591 [THz] =     698.269426 [cm-1]
     freq (   15) =      21.931365 [THz] =     731.551576 [cm-1]
     freq (   16) =      28.298894 [THz] =     943.949486 [cm-1]
     freq (   17) =      28.824401 [THz] =     961.478539 [cm-1]
     freq (   18) =      31.409113 [THz] =    1047.695236 [cm-1]
     freq (   19) =      32.870220 [THz] =    1096.432530 [cm-1]
     freq (   20) =      33.598670 [THz] =    1120.730988 [cm-1]
     freq (   21) =      34.537659 [THz] =    1152.052311 [cm-1]
     freq (   22) =      34.857953 [THz] =    1162.736150 [cm-1]
     freq (   23) =      35.171543 [THz] =    1173.196400 [cm-1]
     freq (   24) =      35.239562 [THz] =    1175.465249 [cm-1]
 **************************************************************************

     Mode symmetry, C_2v (mm2)  point group:

     freq (   1-   1) =         62.0  [cm-1]   --> B_1  D_3  S_3      
     freq (   2-   2) =        111.7  [cm-1]   --> B_2  D_4  S_4      
     freq (   3-   3) =        181.2  [cm-1]   --> A_1  D_1  S_1      
     freq (   4-   4) =        190.1  [cm-1]   --> B_2  D_4  S_4      
     freq (   5-   5) =        241.2  [cm-1]   --> A_2  D_2  S_2      
     freq (   6-   6) =        273.8  [cm-1]   --> B_1  D_3  S_3      
     freq (   7-   7) =        313.3  [cm-1]   --> B_2  D_4  S_4      
     freq (   8-   8) =        318.3  [cm-1]   --> A_2  D_2  S_2      
     freq (   9-   9) =        391.9  [cm-1]   --> A_1  D_1  S_1      
     freq (  10-  10) =        411.4  [cm-1]   --> B_1  D_3  S_3      
     freq (  11-  11) =        455.2  [cm-1]   --> A_1  D_1  S_1      
     freq (  12-  12) =        552.0  [cm-1]   --> A_1  D_1  S_1      
     freq (  13-  13) =        602.0  [cm-1]   --> A_2  D_2  S_2      
     freq (  14-  14) =        698.3  [cm-1]   --> B_1  D_3  S_3      
     freq (  15-  15) =        731.6  [cm-1]   --> B_2  D_4  S_4      
     freq (  16-  16) =        943.9  [cm-1]   --> A_2  D_2  S_2      
     freq (  17-  17) =        961.5  [cm-1]   --> B_1  D_3  S_3      
     freq (  18-  18) =       1047.7  [cm-1]   --> A_2  D_2  S_2      
     freq (  19-  19) =       1096.4  [cm-1]   --> B_2  D_4  S_4      
     freq (  20-  20) =       1120.7  [cm-1]   --> A_1  D_1  S_1      
     freq (  21-  21) =       1152.1  [cm-1]   --> B_1  D_3  S_3      
     freq (  22-  22) =       1162.7  [cm-1]   --> B_2  D_4  S_4      
     freq (  23-  23) =       1173.2  [cm-1]   --> A_2  D_2  S_2      
     freq (  24-  24) =       1175.5  [cm-1]   --> A_1  D_1  S_1      

     Calculation of q =    0.1428571   0.0896112   0.0000000

     Parallelization info
     --------------------
     sticks:   dense  smooth     PW     G-vecs:    dense   smooth      PW
     Min        3444    3444    926               944598   944598  131429
     Max        3445    3445    929               944605   944605  131430
     Sum        6889    6889   1855              1889203  1889203  262859

     Using Slab Decomposition


     Title: 
     default                                                                    


     bravais-lattice index     =            0
     lattice parameter (alat)  =       4.9702  a.u.
     unit-cell volume          =    1084.4437 (a.u.)^3
     number of atoms/cell      =            8
     number of atomic types    =            2
     number of electrons       =        44.00
     number of Kohn-Sham states=           26
     kinetic-energy cutoff     =     550.0000  Ry
     charge density cutoff     =    2200.0000  Ry
     Exchange-correlation= PBE
                           (   1   4   3   4   0   0   0)

     celldm(1)=   4.970237  celldm(2)=   0.000000  celldm(3)=   0.000000
     celldm(4)=   0.000000  celldm(5)=   0.000000  celldm(6)=   0.000000

     crystal axes: (cart. coord. in units of alat)
               a(1) = (   1.000000   0.000000   0.000000 )  
               a(2) = (   0.000000   1.594189   0.000000 )  
               a(3) = (   0.000000   0.000000   5.540333 )  

     reciprocal axes: (cart. coord. in units 2 pi/alat)
               b(1) = (  1.000000  0.000000  0.000000 )  
               b(2) = (  0.000000  0.627278  0.000000 )  
               b(3) = (  0.000000  0.000000  0.180495 )  


     PseudoPot. # 1 for C  read from file:
     ../pseudo/c_pbe_v1.2.uspp.F.UPF
     MD5 check sum: d1aef80898a10debaa0f26306b886e00
     Pseudo is Ultrasoft + core correction, Zval =  4.0
     Generated by new atomic code, or converted to UPF format
     Using radial grid of  721 points,  4 beta functions with: 
                l(1) =   0
                l(2) =   0
                l(3) =   1
                l(4) =   1
     Q(r) pseudized with  8 coefficients,  rinner =    1.100   1.100   1.100


     PseudoPot. # 2 for F  read from file:
     ../pseudo/f_pbe_v1.4.uspp.F.UPF
     MD5 check sum: 4c38b6a325caf53ec0e86aed9459de46
     Pseudo is Ultrasoft, Zval =  7.0
     Generated by new atomic code, or converted to UPF format
     Using radial grid of  799 points,  4 beta functions with: 
                l(1) =   0
                l(2) =   0
                l(3) =   1
                l(4) =   1
     Q(r) pseudized with  8 coefficients,  rinner =    0.950   0.950   0.950


     atomic species   valence    mass     pseudopotential
        C              4.00    12.01070     C ( 1.00)
        F              7.00    18.99840     F ( 1.00)

      8 Sym. Ops., with inversion, found



   Cartesian axes

     site n.     atom                  positions (alat units)
         1           C   tau(   1) = (   0.5000000   0.2256478   0.1937169  )
         2           C   tau(   2) = (   0.0000000   1.0227422  -0.1937169  )
         3           C   tau(   3) = (   0.0000000   0.5714467   0.1937169  )
         4           C   tau(   4) = (   0.5000000   1.3685411  -0.1937169  )
         5           F   tau(   5) = (   0.5000000  -0.0095812  -0.6719762  )
         6           F   tau(   6) = (   0.0000000   0.7875132   0.6719762  )
         7           F   tau(   7) = (   0.0000000   0.8066757  -0.6719762  )
         8           F   tau(   8) = (   0.5000000   0.0095812   0.6719762  )

     number of k points=   392  Marzari-Vanderbilt smearing, width (Ry)=  0.0010

     Number of k-points >= 100: set verbosity='high' to print them.

     Dense  grid:  1889203 G-vectors     FFT dimensions: (  80, 120, 432)

     Estimated max dynamical RAM per process >       1.01 GB

     Estimated total dynamical RAM >       8.08 GB
 ----2D----2D----2D----2D----2D----2D----2D----2D----2D----2D----2D----2D
  The code is running with the 2D cutoff
  Please refer to:
  Sohier, T., Calandra, M., & Mauri, F. (2017), 
  Density functional perturbation theory for gated two-dimensional heterostructures:
  Theoretical developments and application to flexural phonons in graphene.
  Physical Review B, 96(7), 75448. https://doi.org/10.1103/PhysRevB.96.075448
 ----2D----2D----2D----2D----2D----2D----2D----2D----2D----2D----2D----2D

     The potential is recalculated from file :
     /home/ext_chineason_graduate_utm_my/fgzigzag/tmp/_ph0/fgz.save/charge-density


     negative rho (up, down):  2.388E-06 0.000E+00
     Starting wfcs are   32 atomic wfcs

     default                                                                    

     bravais-lattice index     =            0
     lattice parameter (alat)  =       4.9702  a.u.
     unit-cell volume          =    1084.4437 (a.u.)^3
     number of atoms/cell      =            8
     number of atomic types    =            2
     kinetic-energy cut-off    =     550.0000  Ry
     charge density cut-off    =    2200.0000  Ry
     convergence threshold     =      1.0E-14
     beta                      =       0.7000
     number of iterations used =            4
     Exchange-correlation= PBE
                           (   1   4   3   4   0   0   0)


     celldm(1)=    4.97024  celldm(2)=    0.00000  celldm(3)=    0.00000
     celldm(4)=    0.00000  celldm(5)=    0.00000  celldm(6)=    0.00000

     crystal axes: (cart. coord. in units of alat)
               a(1) = (  1.0000  0.0000  0.0000 )  
               a(2) = (  0.0000  1.5942  0.0000 )  
               a(3) = (  0.0000  0.0000  5.5403 )  

     reciprocal axes: (cart. coord. in units 2 pi/alat)
               b(1) = (  1.0000  0.0000  0.0000 )  
               b(2) = (  0.0000  0.6273  0.0000 )  
               b(3) = (  0.0000  0.0000  0.1805 )  


     Atoms inside the unit cell: 

     Cartesian axes

     site n.  atom      mass           positions (alat units)
        1     C   12.0107   tau(    1) = (    0.50000    0.22565    0.19372  )
        2     C   12.0107   tau(    2) = (    0.00000    1.02274   -0.19372  )
        3     C   12.0107   tau(    3) = (    0.00000    0.57145    0.19372  )
        4     C   12.0107   tau(    4) = (    0.50000    1.36854   -0.19372  )
        5     F   18.9984   tau(    5) = (    0.50000   -0.00958   -0.67198  )
        6     F   18.9984   tau(    6) = (    0.00000    0.78751    0.67198  )
        7     F   18.9984   tau(    7) = (    0.00000    0.80668   -0.67198  )
        8     F   18.9984   tau(    8) = (    0.50000    0.00958    0.67198  )

     Computing dynamical matrix for 
                    q = (   0.1428571   0.0896112   0.0000000 )

      2 Sym.Ops. (no q -> -q+G )


     G cutoff = 1376.6300  ( 944598 G-vectors)     FFT grid: ( 80,120,432)

     number of k points=   392  Marzari-Vanderbilt smearing, width (Ry)=  0.0010

     PseudoPot. # 1 for C  read from file:
     ../pseudo/c_pbe_v1.2.uspp.F.UPF
     MD5 check sum: d1aef80898a10debaa0f26306b886e00
     Pseudo is Ultrasoft + core correction, Zval =  4.0
     Generated by new atomic code, or converted to UPF format
     Using radial grid of  721 points,  4 beta functions with: 
                l(1) =   0
                l(2) =   0
                l(3) =   1
                l(4) =   1
     Q(r) pseudized with  8 coefficients,  rinner =    1.100   1.100   1.100


     PseudoPot. # 2 for F  read from file:
     ../pseudo/f_pbe_v1.4.uspp.F.UPF
     MD5 check sum: 4c38b6a325caf53ec0e86aed9459de46
     Pseudo is Ultrasoft, Zval =  7.0
     Generated by new atomic code, or converted to UPF format
     Using radial grid of  799 points,  4 beta functions with: 
                l(1) =   0
                l(2) =   0
                l(3) =   1
                l(4) =   1
     Q(r) pseudized with  8 coefficients,  rinner =    0.950   0.950   0.950


     Mode symmetry, C_s (m)     point group:


     Atomic displacements:
     There are   24 irreducible representations

     Representation     1      1 modes -  Done

     Representation     2      1 modes -  Done

     Representation     3      1 modes -  Done

     Representation     4      1 modes -  Done

     Representation     5      1 modes -  Done

     Representation     6      1 modes -  Done

     Representation     7      1 modes -  Done

     Representation     8      1 modes -  Done

     Representation     9      1 modes -  Done

     Representation    10      1 modes -  Done

     Representation    11      1 modes -  Done

     Representation    12      1 modes -  Done

     Representation    13      1 modes -  Done

     Representation    14      1 modes -  Done

     Representation    15      1 modes -  Done

     Representation    16      1 modes -  Done

     Representation    17      1 modes -  Done

     Representation    18      1 modes -  Done

     Representation    19      1 modes -  Done

     Representation    20      1 modes -  Done

     Representation    21      1 modes -  Done

     Representation    22      1 modes -  Done

     Representation    23      1 modes -  Done

     Representation    24      1 modes -  Done


     PHONON       :     42.19s CPU   1m 7.93s WALL


     Number of q in the star =    4
     List of q in the star:
          1   0.142857143   0.089611176   0.000000000
          2   0.142857143  -0.089611176   0.000000000
          3  -0.142857143  -0.089611176   0.000000000
          4  -0.142857143   0.089611176   0.000000000

     Diagonalizing the dynamical matrix

     q = (    0.142857143   0.089611176   0.000000000 ) 

 **************************************************************************
     freq (    1) =       2.142554 [THz] =      71.467922 [cm-1]
     freq (    2) =       3.551327 [THz] =     118.459518 [cm-1]
     freq (    3) =       5.816297 [THz] =     194.010788 [cm-1]
     freq (    4) =       6.805649 [THz] =     227.012030 [cm-1]
     freq (    5) =       7.201028 [THz] =     240.200430 [cm-1]
     freq (    6) =       8.496396 [THz] =     283.409252 [cm-1]
     freq (    7) =       9.302814 [THz] =     310.308476 [cm-1]
     freq (    8) =       9.484884 [THz] =     316.381688 [cm-1]
     freq (    9) =      11.510192 [THz] =     383.938667 [cm-1]
     freq (   10) =      12.191761 [THz] =     406.673368 [cm-1]
     freq (   11) =      13.521290 [THz] =     451.021670 [cm-1]
     freq (   12) =      16.400369 [THz] =     547.057415 [cm-1]
     freq (   13) =      17.796889 [THz] =     593.640304 [cm-1]
     freq (   14) =      20.522421 [THz] =     684.554295 [cm-1]
     freq (   15) =      22.426178 [THz] =     748.056771 [cm-1]
     freq (   16) =      27.902654 [THz] =     930.732342 [cm-1]
     freq (   17) =      28.983267 [THz] =     966.777713 [cm-1]
     freq (   18) =      32.023507 [THz] =    1068.189198 [cm-1]
     freq (   19) =      32.780196 [THz] =    1093.429631 [cm-1]
     freq (   20) =      33.770297 [THz] =    1126.455845 [cm-1]
     freq (   21) =      34.220372 [THz] =    1141.468756 [cm-1]
     freq (   22) =      34.574997 [THz] =    1153.297757 [cm-1]
     freq (   23) =      35.235616 [THz] =    1175.333623 [cm-1]
     freq (   24) =      35.255223 [THz] =    1175.987666 [cm-1]
 **************************************************************************

     Mode symmetry, C_s (m)     point group:

     freq (   1-   1) =         71.5  [cm-1]   --> A''                
     freq (   2-   2) =        118.5  [cm-1]   --> A'                 
     freq (   3-   3) =        194.0  [cm-1]   --> A'                 
     freq (   4-   4) =        227.0  [cm-1]   --> A'                 
     freq (   5-   5) =        240.2  [cm-1]   --> A''                
     freq (   6-   6) =        283.4  [cm-1]   --> A''                
     freq (   7-   7) =        310.3  [cm-1]   --> A'                 
     freq (   8-   8) =        316.4  [cm-1]   --> A''                
     freq (   9-   9) =        383.9  [cm-1]   --> A'                 
     freq (  10-  10) =        406.7  [cm-1]   --> A''                
     freq (  11-  11) =        451.0  [cm-1]   --> A'                 
     freq (  12-  12) =        547.1  [cm-1]   --> A'                 
     freq (  13-  13) =        593.6  [cm-1]   --> A''                
     freq (  14-  14) =        684.6  [cm-1]   --> A''                
     freq (  15-  15) =        748.1  [cm-1]   --> A'                 
     freq (  16-  16) =        930.7  [cm-1]   --> A''                
     freq (  17-  17) =        966.8  [cm-1]   --> A''                
     freq (  18-  18) =       1068.2  [cm-1]   --> A''                
     freq (  19-  19) =       1093.4  [cm-1]   --> A'                 
     freq (  20-  20) =       1126.5  [cm-1]   --> A'                 
     freq (  21-  21) =       1141.5  [cm-1]   --> A''                
     freq (  22-  22) =       1153.3  [cm-1]   --> A'                 
     freq (  23-  23) =       1175.3  [cm-1]   --> A''                
     freq (  24-  24) =       1176.0  [cm-1]   --> A'                 

     Calculation of q =    0.1428571   0.1792224   0.0000000

     Parallelization info
     --------------------
     sticks:   dense  smooth     PW     G-vecs:    dense   smooth      PW
     Min        3444    3444    936               944598   944598  132555
     Max        3445    3445    939               944605   944605  132560
     Sum        6889    6889   1875              1889203  1889203  265115

     Using Slab Decomposition


     Title: 
     default                                                                    


     bravais-lattice index     =            0
     lattice parameter (alat)  =       4.9702  a.u.
     unit-cell volume          =    1084.4437 (a.u.)^3
     number of atoms/cell      =            8
     number of atomic types    =            2
     number of electrons       =        44.00
     number of Kohn-Sham states=           26
     kinetic-energy cutoff     =     550.0000  Ry
     charge density cutoff     =    2200.0000  Ry
     Exchange-correlation= PBE
                           (   1   4   3   4   0   0   0)

     celldm(1)=   4.970237  celldm(2)=   0.000000  celldm(3)=   0.000000
     celldm(4)=   0.000000  celldm(5)=   0.000000  celldm(6)=   0.000000

     crystal axes: (cart. coord. in units of alat)
               a(1) = (   1.000000   0.000000   0.000000 )  
               a(2) = (   0.000000   1.594189   0.000000 )  
               a(3) = (   0.000000   0.000000   5.540333 )  

     reciprocal axes: (cart. coord. in units 2 pi/alat)
               b(1) = (  1.000000  0.000000  0.000000 )  
               b(2) = (  0.000000  0.627278  0.000000 )  
               b(3) = (  0.000000  0.000000  0.180495 )  


     PseudoPot. # 1 for C  read from file:
     ../pseudo/c_pbe_v1.2.uspp.F.UPF
     MD5 check sum: d1aef80898a10debaa0f26306b886e00
     Pseudo is Ultrasoft + core correction, Zval =  4.0
     Generated by new atomic code, or converted to UPF format
     Using radial grid of  721 points,  4 beta functions with: 
                l(1) =   0
                l(2) =   0
                l(3) =   1
                l(4) =   1
     Q(r) pseudized with  8 coefficients,  rinner =    1.100   1.100   1.100


     PseudoPot. # 2 for F  read from file:
     ../pseudo/f_pbe_v1.4.uspp.F.UPF
     MD5 check sum: 4c38b6a325caf53ec0e86aed9459de46
     Pseudo is Ultrasoft, Zval =  7.0
     Generated by new atomic code, or converted to UPF format
     Using radial grid of  799 points,  4 beta functions with: 
                l(1) =   0
                l(2) =   0
                l(3) =   1
                l(4) =   1
     Q(r) pseudized with  8 coefficients,  rinner =    0.950   0.950   0.950


     atomic species   valence    mass     pseudopotential
        C              4.00    12.01070     C ( 1.00)
        F              7.00    18.99840     F ( 1.00)

      8 Sym. Ops., with inversion, found



   Cartesian axes

     site n.     atom                  positions (alat units)
         1           C   tau(   1) = (   0.5000000   0.2256478   0.1937169  )
         2           C   tau(   2) = (   0.0000000   1.0227422  -0.1937169  )
         3           C   tau(   3) = (   0.0000000   0.5714467   0.1937169  )
         4           C   tau(   4) = (   0.5000000   1.3685411  -0.1937169  )
         5           F   tau(   5) = (   0.5000000  -0.0095812  -0.6719762  )
[...]
     There are   24 irreducible representations

     Representation     1      1 modes -  Done

     Representation     2      1 modes -  Done

     Representation     3      1 modes -  Done

     Representation     4      1 modes -  Done

     Representation     5      1 modes -  Done

     Representation     6      1 modes -  Done

     Representation     7      1 modes -  Done

     Representation     8      1 modes -  Done

     Representation     9      1 modes -  Done

     Representation    10      1 modes -  Done

     Representation    11      1 modes -  Done

     Representation    12      1 modes -  Done

     Representation    13      1 modes -  Done

     Representation    14      1 modes -  Done

     Representation    15      1 modes -  Done

     Representation    16      1 modes -  Done

     Representation    17      1 modes -  Done

     Representation    18      1 modes -  Done

     Representation    19      1 modes -  Done

     Representation    20      1 modes -  Done

     Representation    21      1 modes -  Done

     Representation    22      1 modes -  Done

     Representation    23      1 modes -  Done

     Representation    24      1 modes -  Done


     PHONON       :   1m47.31s CPU   2m28.46s WALL


     Number of q in the star =    4
     List of q in the star:
          1   0.428571429   0.179222352   0.000000000
          2   0.428571429  -0.179222352   0.000000000
          3  -0.428571429  -0.179222352   0.000000000
          4  -0.428571429   0.179222352   0.000000000

     Diagonalizing the dynamical matrix

     q = (    0.428571429   0.179222352   0.000000000 ) 

 **************************************************************************
     freq (    1) =       4.550678 [THz] =     151.794278 [cm-1]
     freq (    2) =       4.763297 [THz] =     158.886481 [cm-1]
     freq (    3) =       8.222189 [THz] =     274.262703 [cm-1]
     freq (    4) =       8.730753 [THz] =     291.226562 [cm-1]
     freq (    5) =       9.767863 [THz] =     325.820835 [cm-1]
     freq (    6) =      10.440168 [THz] =     348.246534 [cm-1]
     freq (    7) =      10.956276 [THz] =     365.462033 [cm-1]
     freq (    8) =      11.439495 [THz] =     381.580475 [cm-1]
     freq (    9) =      11.970725 [THz] =     399.300392 [cm-1]
     freq (   10) =      12.421664 [THz] =     414.342126 [cm-1]
     freq (   11) =      16.410026 [THz] =     547.379556 [cm-1]
     freq (   12) =      16.922738 [THz] =     564.481788 [cm-1]
     freq (   13) =      22.052559 [THz] =     735.594193 [cm-1]
     freq (   14) =      23.102383 [THz] =     770.612563 [cm-1]
     freq (   15) =      25.381218 [THz] =     846.626299 [cm-1]
     freq (   16) =      26.511549 [THz] =     884.330074 [cm-1]
     freq (   17) =      30.653303 [THz] =    1022.484120 [cm-1]
     freq (   18) =      31.555991 [THz] =    1052.594542 [cm-1]
     freq (   19) =      31.757238 [THz] =    1059.307444 [cm-1]
     freq (   20) =      32.062856 [THz] =    1069.501753 [cm-1]
     freq (   21) =      32.617762 [THz] =    1088.011435 [cm-1]
     freq (   22) =      33.193299 [THz] =    1107.209268 [cm-1]
     freq (   23) =      33.928843 [THz] =    1131.744373 [cm-1]
     freq (   24) =      34.053762 [THz] =    1135.911232 [cm-1]
 **************************************************************************

     Mode symmetry, C_s (m)     point group:

     freq (   1-   1) =        151.8  [cm-1]   --> A'                 
     freq (   2-   2) =        158.9  [cm-1]   --> A''                
     freq (   3-   3) =        274.3  [cm-1]   --> A''                
     freq (   4-   4) =        291.2  [cm-1]   --> A'                 
     freq (   5-   5) =        325.8  [cm-1]   --> A'                 
     freq (   6-   6) =        348.2  [cm-1]   --> A''                
     freq (   7-   7) =        365.5  [cm-1]   --> A''                
     freq (   8-   8) =        381.6  [cm-1]   --> A'                 
     freq (   9-   9) =        399.3  [cm-1]   --> A'                 
     freq (  10-  10) =        414.3  [cm-1]   --> A''                
     freq (  11-  11) =        547.4  [cm-1]   --> A'                 
     freq (  12-  12) =        564.5  [cm-1]   --> A''                
     freq (  13-  13) =        735.6  [cm-1]   --> A'                 
     freq (  14-  14) =        770.6  [cm-1]   --> A''                
     freq (  15-  15) =        846.6  [cm-1]   --> A'                 
     freq (  16-  16) =        884.3  [cm-1]   --> A''                
     freq (  17-  17) =       1022.5  [cm-1]   --> A''                
     freq (  18-  18) =       1052.6  [cm-1]   --> A'                 
     freq (  19-  19) =       1059.3  [cm-1]   --> A''                
     freq (  20-  20) =       1069.5  [cm-1]   --> A'                 
     freq (  21-  21) =       1088.0  [cm-1]   --> A''                
     freq (  22-  22) =       1107.2  [cm-1]   --> A'                 
     freq (  23-  23) =       1131.7  [cm-1]   --> A'                 
     freq (  24-  24) =       1135.9  [cm-1]   --> A''                

     Calculation of q =    0.4285714   0.2688335   0.0000000

     Parallelization info
     --------------------
     sticks:   dense  smooth     PW     G-vecs:    dense   smooth      PW
     Min        3444    3444    960               944598   944598  138540
     Max        3445    3445    961               944605   944605  138545
     Sum        6889    6889   1921              1889203  1889203  277085

     Using Slab Decomposition


     Title: 
     default                                                                    


     bravais-lattice index     =            0
     lattice parameter (alat)  =       4.9702  a.u.
     unit-cell volume          =    1084.4437 (a.u.)^3
     number of atoms/cell      =            8
     number of atomic types    =            2
     number of electrons       =        44.00
     number of Kohn-Sham states=           26
     kinetic-energy cutoff     =     550.0000  Ry
     charge density cutoff     =    2200.0000  Ry
     Exchange-correlation= PBE
                           (   1   4   3   4   0   0   0)

     celldm(1)=   4.970237  celldm(2)=   0.000000  celldm(3)=   0.000000
     celldm(4)=   0.000000  celldm(5)=   0.000000  celldm(6)=   0.000000

     crystal axes: (cart. coord. in units of alat)
               a(1) = (   1.000000   0.000000   0.000000 )  
               a(2) = (   0.000000   1.594189   0.000000 )  
               a(3) = (   0.000000   0.000000   5.540333 )  

     reciprocal axes: (cart. coord. in units 2 pi/alat)
               b(1) = (  1.000000  0.000000  0.000000 )  
               b(2) = (  0.000000  0.627278  0.000000 )  
               b(3) = (  0.000000  0.000000  0.180495 )  


     PseudoPot. # 1 for C  read from file:
     ../pseudo/c_pbe_v1.2.uspp.F.UPF
     MD5 check sum: d1aef80898a10debaa0f26306b886e00
     Pseudo is Ultrasoft + core correction, Zval =  4.0
     Generated by new atomic code, or converted to UPF format
     Using radial grid of  721 points,  4 beta functions with: 
                l(1) =   0
                l(2) =   0
                l(3) =   1
                l(4) =   1
     Q(r) pseudized with  8 coefficients,  rinner =    1.100   1.100   1.100


     PseudoPot. # 2 for F  read from file:
     ../pseudo/f_pbe_v1.4.uspp.F.UPF
     MD5 check sum: 4c38b6a325caf53ec0e86aed9459de46
     Pseudo is Ultrasoft, Zval =  7.0
     Generated by new atomic code, or converted to UPF format
     Using radial grid of  799 points,  4 beta functions with: 
                l(1) =   0
                l(2) =   0
                l(3) =   1
                l(4) =   1
     Q(r) pseudized with  8 coefficients,  rinner =    0.950   0.950   0.950


     atomic species   valence    mass     pseudopotential
        C              4.00    12.01070     C ( 1.00)
        F              7.00    18.99840     F ( 1.00)

      8 Sym. Ops., with inversion, found



   Cartesian axes

     site n.     atom                  positions (alat units)
         1           C   tau(   1) = (   0.5000000   0.2256478   0.1937169  )
         2           C   tau(   2) = (   0.0000000   1.0227422  -0.1937169  )
         3           C   tau(   3) = (   0.0000000   0.5714467   0.1937169  )
         4           C   tau(   4) = (   0.5000000   1.3685411  -0.1937169  )
         5           F   tau(   5) = (   0.5000000  -0.0095812  -0.6719762  )
         6           F   tau(   6) = (   0.0000000   0.7875132   0.6719762  )
         7           F   tau(   7) = (   0.0000000   0.8066757  -0.6719762  )
         8           F   tau(   8) = (   0.5000000   0.0095812   0.6719762  )

     number of k points=   392  Marzari-Vanderbilt smearing, width (Ry)=  0.0010

     Number of k-points >= 100: set verbosity='high' to print them.

     Dense  grid:  1889203 G-vectors     FFT dimensions: (  80, 120, 432)

     Estimated max dynamical RAM per process >       1.01 GB

     Estimated total dynamical RAM >       8.08 GB
 ----2D----2D----2D----2D----2D----2D----2D----2D----2D----2D----2D----2D
  The code is running with the 2D cutoff
  Please refer to:
  Sohier, T., Calandra, M., & Mauri, F. (2017), 
  Density functional perturbation theory for gated two-dimensional heterostructures:
  Theoretical developments and application to flexural phonons in graphene.
  Physical Review B, 96(7), 75448. https://doi.org/10.1103/PhysRevB.96.075448
 ----2D----2D----2D----2D----2D----2D----2D----2D----2D----2D----2D----2D

     The potential is recalculated from file :
     /home/ext_chineason_graduate_utm_my/fgzigzag/tmp/_ph0/fgz.save/charge-density


     negative rho (up, down):  2.388E-06 0.000E+00
     Starting wfcs are   32 atomic wfcs

     default                                                                    

     bravais-lattice index     =            0
     lattice parameter (alat)  =       4.9702  a.u.
     unit-cell volume          =    1084.4437 (a.u.)^3
     number of atoms/cell      =            8
     number of atomic types    =            2
     kinetic-energy cut-off    =     550.0000  Ry
     charge density cut-off    =    2200.0000  Ry
     convergence threshold     =      1.0E-14
     beta                      =       0.7000
     number of iterations used =            4
     Exchange-correlation= PBE
                           (   1   4   3   4   0   0   0)


     celldm(1)=    4.97024  celldm(2)=    0.00000  celldm(3)=    0.00000
     celldm(4)=    0.00000  celldm(5)=    0.00000  celldm(6)=    0.00000

     crystal axes: (cart. coord. in units of alat)
               a(1) = (  1.0000  0.0000  0.0000 )  
               a(2) = (  0.0000  1.5942  0.0000 )  
               a(3) = (  0.0000  0.0000  5.5403 )  

     reciprocal axes: (cart. coord. in units 2 pi/alat)
               b(1) = (  1.0000  0.0000  0.0000 )  
               b(2) = (  0.0000  0.6273  0.0000 )  
               b(3) = (  0.0000  0.0000  0.1805 )  


     Atoms inside the unit cell: 

     Cartesian axes

     site n.  atom      mass           positions (alat units)
        1     C   12.0107   tau(    1) = (    0.50000    0.22565    0.19372  )
        2     C   12.0107   tau(    2) = (    0.00000    1.02274   -0.19372  )
        3     C   12.0107   tau(    3) = (    0.00000    0.57145    0.19372  )
        4     C   12.0107   tau(    4) = (    0.50000    1.36854   -0.19372  )
        5     F   18.9984   tau(    5) = (    0.50000   -0.00958   -0.67198  )
        6     F   18.9984   tau(    6) = (    0.00000    0.78751    0.67198  )
        7     F   18.9984   tau(    7) = (    0.00000    0.80668   -0.67198  )
        8     F   18.9984   tau(    8) = (    0.50000    0.00958    0.67198  )

     Computing dynamical matrix for 
                    q = (   0.4285714   0.2688335   0.0000000 )

      2 Sym.Ops. (no q -> -q+G )


     G cutoff = 1376.6300  ( 944598 G-vectors)     FFT grid: ( 80,120,432)

     number of k points=   392  Marzari-Vanderbilt smearing, width (Ry)=  0.0010

     PseudoPot. # 1 for C  read from file:
     ../pseudo/c_pbe_v1.2.uspp.F.UPF
     MD5 check sum: d1aef80898a10debaa0f26306b886e00
     Pseudo is Ultrasoft + core correction, Zval =  4.0
     Generated by new atomic code, or converted to UPF format
     Using radial grid of  721 points,  4 beta functions with: 
                l(1) =   0
                l(2) =   0
                l(3) =   1
                l(4) =   1
     Q(r) pseudized with  8 coefficients,  rinner =    1.100   1.100   1.100


     PseudoPot. # 2 for F  read from file:
     ../pseudo/f_pbe_v1.4.uspp.F.UPF
     MD5 check sum: 4c38b6a325caf53ec0e86aed9459de46
     Pseudo is Ultrasoft, Zval =  7.0
     Generated by new atomic code, or converted to UPF format
     Using radial grid of  799 points,  4 beta functions with: 
                l(1) =   0
                l(2) =   0
                l(3) =   1
                l(4) =   1
     Q(r) pseudized with  8 coefficients,  rinner =    0.950   0.950   0.950


     Mode symmetry, C_s (m)     point group:


     Atomic displacements:
     There are   24 irreducible representations

     Representation     1      1 modes -  Done

     Representation     2      1 modes -  Done

     Representation     3      1 modes -  Done

     Representation     4      1 modes -  Done

     Representation     5      1 modes -  Done

     Representation     6      1 modes -  Done

     Representation     7      1 modes -  Done

     Representation     8      1 modes -  Done

     Representation     9      1 modes -  Done

     Representation    10      1 modes -  Done

     Representation    11      1 modes -  Done

     Representation    12      1 modes -  Done

     Representation    13      1 modes -  Done

     Representation    14      1 modes -  Done

     Representation    15      1 modes -  Done

     Representation    16      1 modes -  Done

     Representation    17      1 modes -  Done

     Representation    18      1 modes -  Done

     Representation    19      1 modes -  Done

     Representation    20      1 modes -  Done

     Representation    21      1 modes -  Done

     Representation    22      1 modes -  Done

     Representation    23      1 modes -  Done

     Representation    24      1 modes -  Done


     PHONON       :   1m54.62s CPU   2m37.52s WALL


     Number of q in the star =    4
     List of q in the star:
          1   0.428571429   0.268833528   0.000000000
          2   0.428571429  -0.268833528   0.000000000
          3  -0.428571429  -0.268833528   0.000000000
          4  -0.428571429   0.268833528   0.000000000

     Diagonalizing the dynamical matrix

     q = (    0.428571429   0.268833528   0.000000000 ) 

 **************************************************************************
     freq (    1) =       4.151401 [THz] =     138.475816 [cm-1]
     freq (    2) =       4.291345 [THz] =     143.143874 [cm-1]
     freq (    3) =       8.079159 [THz] =     269.491730 [cm-1]
     freq (    4) =       8.314086 [THz] =     277.328056 [cm-1]
     freq (    5) =       9.635821 [THz] =     321.416390 [cm-1]
     freq (    6) =       9.918425 [THz] =     330.843030 [cm-1]
     freq (    7) =      11.416820 [THz] =     380.824131 [cm-1]
     freq (    8) =      11.607069 [THz] =     387.170133 [cm-1]
     freq (    9) =      12.138050 [THz] =     404.881762 [cm-1]
     freq (   10) =      12.278318 [THz] =     409.560616 [cm-1]
     freq (   11) =      16.879061 [THz] =     563.024882 [cm-1]
     freq (   12) =      17.054264 [THz] =     568.869023 [cm-1]
     freq (   13) =      22.345074 [THz] =     745.351448 [cm-1]
     freq (   14) =      22.738007 [THz] =     758.458284 [cm-1]
     freq (   15) =      25.623183 [THz] =     854.697394 [cm-1]
     freq (   16) =      26.008066 [THz] =     867.535687 [cm-1]
     freq (   17) =      31.057634 [THz] =    1035.971165 [cm-1]
     freq (   18) =      31.320846 [THz] =    1044.750957 [cm-1]
     freq (   19) =      32.198274 [THz] =    1074.018801 [cm-1]
     freq (   20) =      32.231048 [THz] =    1075.112029 [cm-1]
     freq (   21) =      32.522711 [THz] =    1084.840857 [cm-1]
     freq (   22) =      32.850698 [THz] =    1095.781323 [cm-1]
     freq (   23) =      33.979162 [THz] =    1133.422857 [cm-1]
     freq (   24) =      34.011245 [THz] =    1134.493007 [cm-1]
 **************************************************************************

     Mode symmetry, C_s (m)     point group:

     freq (   1-   1) =        138.5  [cm-1]   --> A'                 
     freq (   2-   2) =        143.1  [cm-1]   --> A''                
     freq (   3-   3) =        269.5  [cm-1]   --> A''                
     freq (   4-   4) =        277.3  [cm-1]   --> A'                 
     freq (   5-   5) =        321.4  [cm-1]   --> A'                 
     freq (   6-   6) =        330.8  [cm-1]   --> A''                
     freq (   7-   7) =        380.8  [cm-1]   --> A''                
     freq (   8-   8) =        387.2  [cm-1]   --> A'                 
     freq (   9-   9) =        404.9  [cm-1]   --> A'                 
     freq (  10-  10) =        409.6  [cm-1]   --> A''                
     freq (  11-  11) =        563.0  [cm-1]   --> A'                 
     freq (  12-  12) =        568.9  [cm-1]   --> A''                
     freq (  13-  13) =        745.4  [cm-1]   --> A'                 
     freq (  14-  14) =        758.5  [cm-1]   --> A''                
     freq (  15-  15) =        854.7  [cm-1]   --> A'                 
     freq (  16-  16) =        867.5  [cm-1]   --> A''                
     freq (  17-  17) =       1036.0  [cm-1]   --> A''                
     freq (  18-  18) =       1044.8  [cm-1]   --> A'                 
     freq (  19-  19) =       1074.0  [cm-1]   --> A''                
     freq (  20-  20) =       1075.1  [cm-1]   --> A'                 
     freq (  21-  21) =       1084.8  [cm-1]   --> A''                
     freq (  22-  22) =       1095.8  [cm-1]   --> A'                 
     freq (  23-  23) =       1133.4  [cm-1]   --> A'                 
     freq (  24-  24) =       1134.5  [cm-1]   --> A''                

     init_run     :     84.79s CPU     93.77s WALL (      15 calls)

     Called by init_run:
     wfcinit      :      0.03s CPU      0.19s WALL (      15 calls)
     potinit      :     14.51s CPU     17.66s WALL (      15 calls)
     hinit0       :     38.55s CPU     39.49s WALL (      15 calls)

     Called by electrons:
     v_of_rho     :     13.56s CPU     16.56s WALL (      16 calls)
     newd         :      6.34s CPU     11.09s WALL (      16 calls)

     Called by c_bands:

     Called by *egterg:

     Called by h_psi:

     General routines
     fft          :     12.38s CPU     14.22s WALL (     240 calls)
     davcio       :      0.01s CPU      0.34s WALL (      16 calls)

     Parallel routines

     PHONON       :   1m54.67s CPU   2m37.79s WALL

     INITIALIZATION: 
     phq_setup    :     21.36s CPU     29.75s WALL (      16 calls)

     init_vloc    :     21.71s CPU     21.76s WALL (      16 calls)
     init_us_1    :      2.83s CPU      2.85s WALL (      16 calls)
     newd         :      6.34s CPU     11.09s WALL (      16 calls)

     DYNAMICAL MATRIX:
     phqscf       :      0.00s CPU      0.00s WALL (      16 calls)
     dynmatrix    :      0.52s CPU      1.17s WALL (      16 calls)

     phqscf       :      0.00s CPU      0.00s WALL (      16 calls)



     phqscf       :      0.00s CPU      0.00s WALL (      16 calls)








      General routines
     fft          :     12.38s CPU     14.22s WALL (     240 calls)
     davcio       :      0.01s CPU      0.34s WALL (      16 calls)


     PHONON       :   1m54.67s CPU   2m37.79s WALL


   This run was terminated on:   3:41:32  15Mar2024            

=------------------------------------------------------------------------------=
   JOB DONE.
=------------------------------------------------------------------------------=
