
     Program Q2R v.7.1 starts on 15Mar2024 at  3:41:38 

     This program is part of the open-source Quantum ESPRESSO suite
     for quantum simulation of materials; please cite
         "P. Giannozzi et al., J. Phys.:Condens. Matter 21 395502 (2009);
         "P. Giannozzi et al., J. Phys.:Condens. Matter 29 465901 (2017);
         "P. Giannozzi et al., J. Chem. Phys. 152 154105 (2020);
          URL http://www.quantum-espresso.org", 
     in publications or presentations arising from this work. More details at
     http://www.quantum-espresso.org/quote

     Parallel version (MPI), running on     4 processors

     MPI processes distributed on     1 nodes
     R & G space division:  proc/nbgrp/npool/nimage =       4
     184765 MiB available memory on the printing compute node when the environment starts


     reading grid info from file fgz.dyn0    
  reading force constants from file fgz.dyn1
  Dielectric Tensor not found
  nqs=            1
 q=   0.00000000  0.00000000  0.00000000
  reading force constants from file fgz.dyn2
  nqs=            2
 q=   0.00000000  0.08961118  0.00000000
 q=   0.00000000 -0.08961118  0.00000000
  reading force constants from file fgz.dyn3
  nqs=            2
 q=   0.00000000  0.17922235  0.00000000
 q=   0.00000000 -0.17922235  0.00000000
  reading force constants from file fgz.dyn4
  nqs=            2
 q=   0.00000000  0.26883353  0.00000000
 q=   0.00000000 -0.26883353  0.00000000
  reading force constants from file fgz.dyn5
  nqs=            2
 q=   0.14285714  0.00000000  0.00000000
 q=  -0.14285714  0.00000000  0.00000000
  reading force constants from file fgz.dyn6
  nqs=            4
 q=   0.14285714  0.08961118  0.00000000
 q=   0.14285714 -0.08961118  0.00000000
 q=  -0.14285714 -0.08961118  0.00000000
 q=  -0.14285714  0.08961118  0.00000000
  reading force constants from file fgz.dyn7
  nqs=            4
 q=   0.14285714  0.17922235  0.00000000
 q=   0.14285714 -0.17922235  0.00000000
 q=  -0.14285714 -0.17922235  0.00000000
 q=  -0.14285714  0.17922235  0.00000000
  reading force constants from file fgz.dyn8
  nqs=            4
 q=   0.14285714  0.26883353  0.00000000
 q=   0.14285714 -0.26883353  0.00000000
 q=  -0.14285714 -0.26883353  0.00000000
 q=  -0.14285714  0.26883353  0.00000000
  reading force constants from file fgz.dyn9
  nqs=            2
 q=   0.28571429  0.00000000  0.00000000
 q=  -0.28571429  0.00000000  0.00000000
  reading force constants from file fgz.dyn10
  nqs=            4
 q=   0.28571429  0.08961118  0.00000000
 q=   0.28571429 -0.08961118  0.00000000
 q=  -0.28571429 -0.08961118  0.00000000
 q=  -0.28571429  0.08961118  0.00000000
  reading force constants from file fgz.dyn11
  nqs=            4
 q=   0.28571429  0.17922235  0.00000000
 q=   0.28571429 -0.17922235  0.00000000
 q=  -0.28571429 -0.17922235  0.00000000
 q=  -0.28571429  0.17922235  0.00000000
  reading force constants from file fgz.dyn12
  nqs=            4
 q=   0.28571429  0.26883353  0.00000000
 q=   0.28571429 -0.26883353  0.00000000
 q=  -0.28571429 -0.26883353  0.00000000
 q=  -0.28571429  0.26883353  0.00000000
  reading force constants from file fgz.dyn13
  nqs=            2
 q=   0.42857143  0.00000000  0.00000000
 q=  -0.42857143  0.00000000  0.00000000
  reading force constants from file fgz.dyn14
  nqs=            4
 q=   0.42857143  0.08961118  0.00000000
 q=   0.42857143 -0.08961118  0.00000000
 q=  -0.42857143 -0.08961118  0.00000000
 q=  -0.42857143  0.08961118  0.00000000
  reading force constants from file fgz.dyn15
  nqs=            4
 q=   0.42857143  0.17922235  0.00000000
 q=   0.42857143 -0.17922235  0.00000000
 q=  -0.42857143 -0.17922235  0.00000000
 q=  -0.42857143  0.17922235  0.00000000
  reading force constants from file fgz.dyn16
  nqs=            4
 q=   0.42857143  0.26883353  0.00000000
 q=   0.42857143 -0.26883353  0.00000000
 q=  -0.42857143 -0.26883353  0.00000000
 q=  -0.42857143  0.26883353  0.00000000

      q-space grid ok, #points =   49

      fft-check success (sum of imaginary terms < 10^-12)

     Q2R          :      0.11s CPU      0.15s WALL


   This run was terminated on:   3:41:38  15Mar2024            

=------------------------------------------------------------------------------=
   JOB DONE.
=------------------------------------------------------------------------------=
