
     Program PWSCF v.7.1 starts on  5Mar2024 at  5:52:34 

     This program is part of the open-source Quantum ESPRESSO suite
     for quantum simulation of materials; please cite
         "P. Giannozzi et al., J. Phys.:Condens. Matter 21 395502 (2009);
         "P. Giannozzi et al., J. Phys.:Condens. Matter 29 465901 (2017);
         "P. Giannozzi et al., J. Chem. Phys. 152 154105 (2020);
          URL http://www.quantum-espresso.org", 
     in publications or presentations arising from this work. More details at
     http://www.quantum-espresso.org/quote

     Parallel version (MPI), running on    24 processors

     MPI processes distributed on     1 nodes
     24721 MiB available memory on the printing compute node when the environment starts

     Reading input from scf.in

     Current dimensions of program PWSCF are:
     Max number of different atomic species (ntypx) = 10
     Max number of k-points (npk) =  40000
     Max angular momentum in pseudopotentials (lmaxx) =  4
     Message from routine setup:
     using ibrav=0 with symmetry is DISCOURAGED, use correct ibrav instead

     K-points division:     npool     =       6
     R & G space division:  proc/nbgrp/npool/nimage =       4
     Subspace diagonalization in iterative solution of the eigenvalue problem:
     a serial algorithm will be used


     Parallelization info
     --------------------
     sticks:   dense  smooth     PW     G-vecs:    dense   smooth      PW
     Min        1722    1722    457               472296   472296   64805
     Max        1723    1723    458               472305   472305   64810
     Sum        6889    6889   1831              1889203  1889203  259231

     Using Slab Decomposition



     bravais-lattice index     =            0
     lattice parameter (alat)  =       4.9702  a.u.
     unit-cell volume          =    1084.4437 (a.u.)^3
     number of atoms/cell      =            8
     number of atomic types    =            2
     number of electrons       =        44.00
     number of Kohn-Sham states=           26
     kinetic-energy cutoff     =     550.0000  Ry
     charge density cutoff     =    2200.0000  Ry
     scf convergence threshold =      1.0E-10
     mixing beta               =       0.7000
     number of iterations used =            8  plain     mixing
     Exchange-correlation=  SLA  PW   PBX  PBC
                           (   1   4   3   4   0   0   0)

     celldm(1)=   4.970237  celldm(2)=   0.000000  celldm(3)=   0.000000
     celldm(4)=   0.000000  celldm(5)=   0.000000  celldm(6)=   0.000000

     crystal axes: (cart. coord. in units of alat)
               a(1) = (   1.000000   0.000000   0.000000 )  
               a(2) = (   0.000000   1.594189   0.000000 )  
               a(3) = (   0.000000   0.000000   5.540333 )  

     reciprocal axes: (cart. coord. in units 2 pi/alat)
               b(1) = (  1.000000  0.000000  0.000000 )  
               b(2) = (  0.000000  0.627278  0.000000 )  
               b(3) = (  0.000000  0.000000  0.180495 )  


     PseudoPot. # 1 for C  read from file:
     ../pseudo/c_pbe_v1.2.uspp.F.UPF
     MD5 check sum: d1aef80898a10debaa0f26306b886e00
     Pseudo is Ultrasoft + core correction, Zval =  4.0
     Generated by new atomic code, or converted to UPF format
     Using radial grid of  721 points,  4 beta functions with: 
                l(1) =   0
                l(2) =   0
                l(3) =   1
                l(4) =   1
     Q(r) pseudized with  8 coefficients,  rinner =    1.100   1.100   1.100


     PseudoPot. # 2 for F  read from file:
     ../pseudo/f_pbe_v1.4.uspp.F.UPF
     MD5 check sum: 4c38b6a325caf53ec0e86aed9459de46
     Pseudo is Ultrasoft, Zval =  7.0
     Generated by new atomic code, or converted to UPF format
     Using radial grid of  799 points,  4 beta functions with: 
                l(1) =   0
                l(2) =   0
                l(3) =   1
                l(4) =   1
     Q(r) pseudized with  8 coefficients,  rinner =    0.950   0.950   0.950


     atomic species   valence    mass     pseudopotential
        C              4.00    12.01070     C ( 1.00)
        F              7.00    18.99840     F ( 1.00)

      8 Sym. Ops., with inversion, found ( 4 have fractional translation)


                                    s                        frac. trans.

      isym =  1     identity                                     

 cryst.   s( 1) = (     1          0          0      )
                  (     0          1          0      )
                  (     0          0          1      )

 cart.    s( 1) = (  1.0000000  0.0000000  0.0000000 )
                  (  0.0000000  1.0000000  0.0000000 )
                  (  0.0000000  0.0000000  1.0000000 )


      isym =  2     180 deg rotation - cart. axis [0,0,1]        

 cryst.   s( 2) = (    -1          0          0      )    f =(  0.5000000 )
                  (     0         -1          0      )       (  0.5000000 )
                  (     0          0          1      )       (  0.0000000 )

 cart.    s( 2) = ( -1.0000000  0.0000000  0.0000000 )    f =(  0.5000000 )
                  (  0.0000000 -1.0000000  0.0000000 )       (  0.7970945 )
                  (  0.0000000  0.0000000  1.0000000 )       (  0.0000000 )


      isym =  3     180 deg rotation - cart. axis [0,1,0]        

 cryst.   s( 3) = (    -1          0          0      )    f =(  0.5000000 )
                  (     0          1          0      )       ( -0.5000000 )
                  (     0          0         -1      )       (  0.0000000 )

 cart.    s( 3) = ( -1.0000000  0.0000000  0.0000000 )    f =(  0.5000000 )
                  (  0.0000000  1.0000000  0.0000000 )       ( -0.7970945 )
                  (  0.0000000  0.0000000 -1.0000000 )       (  0.0000000 )


      isym =  4     180 deg rotation - cart. axis [1,0,0]        

 cryst.   s( 4) = (     1          0          0      )
                  (     0         -1          0      )
                  (     0          0         -1      )

 cart.    s( 4) = (  1.0000000  0.0000000  0.0000000 )
                  (  0.0000000 -1.0000000  0.0000000 )
                  (  0.0000000  0.0000000 -1.0000000 )


      isym =  5     inversion                                    

 cryst.   s( 5) = (    -1          0          0      )
                  (     0         -1          0      )
                  (     0          0         -1      )

 cart.    s( 5) = ( -1.0000000  0.0000000  0.0000000 )
                  (  0.0000000 -1.0000000  0.0000000 )
                  (  0.0000000  0.0000000 -1.0000000 )


      isym =  6     inv. 180 deg rotation - cart. axis [0,0,1]   

 cryst.   s( 6) = (     1          0          0      )    f =(  0.5000000 )
                  (     0          1          0      )       ( -0.5000000 )
                  (     0          0         -1      )       (  0.0000000 )

 cart.    s( 6) = (  1.0000000  0.0000000  0.0000000 )    f =(  0.5000000 )
                  (  0.0000000  1.0000000  0.0000000 )       ( -0.7970945 )
                  (  0.0000000  0.0000000 -1.0000000 )       (  0.0000000 )


      isym =  7     inv. 180 deg rotation - cart. axis [0,1,0]   

 cryst.   s( 7) = (     1          0          0      )    f =(  0.5000000 )
                  (     0         -1          0      )       (  0.5000000 )
                  (     0          0          1      )       (  0.0000000 )

 cart.    s( 7) = (  1.0000000  0.0000000  0.0000000 )    f =(  0.5000000 )
                  (  0.0000000 -1.0000000  0.0000000 )       (  0.7970945 )
                  (  0.0000000  0.0000000  1.0000000 )       (  0.0000000 )


      isym =  8     inv. 180 deg rotation - cart. axis [1,0,0]   

 cryst.   s( 8) = (    -1          0          0      )
                  (     0          1          0      )
                  (     0          0          1      )

 cart.    s( 8) = ( -1.0000000  0.0000000  0.0000000 )
                  (  0.0000000  1.0000000  0.0000000 )
                  (  0.0000000  0.0000000  1.0000000 )


   Cartesian axes

     site n.     atom                  positions (alat units)
         1           C   tau(   1) = (   0.5000000   0.2256478   0.1937169  )
         2           C   tau(   2) = (   0.0000000   1.0227422  -0.1937169  )
         3           C   tau(   3) = (   0.0000000   0.5714467   0.1937169  )
         4           C   tau(   4) = (   0.5000000   1.3685411  -0.1937169  )
         5           F   tau(   5) = (   0.5000000  -0.0095812  -0.6719762  )
         6           F   tau(   6) = (   0.0000000   0.7875132   0.6719762  )
         7           F   tau(   7) = (   0.0000000   0.8066757  -0.6719762  )
         8           F   tau(   8) = (   0.5000000   0.0095812   0.6719762  )

   Crystallographic axes

     site n.     atom                  positions (cryst. coord.)
         1           C   tau(   1) = (  0.5000000  0.1415439  0.0349649  )
         2           C   tau(   2) = (  0.0000000  0.6415439 -0.0349649  )
         3           C   tau(   3) = (  0.0000000  0.3584561  0.0349649  )
         4           C   tau(   4) = (  0.5000000  0.8584561 -0.0349649  )
         5           F   tau(   5) = (  0.5000000 -0.0060101 -0.1212881  )
         6           F   tau(   6) = (  0.0000000  0.4939899  0.1212881  )
         7           F   tau(   7) = (  0.0000000  0.5060101 -0.1212881  )
         8           F   tau(   8) = (  0.5000000  0.0060101  0.1212881  )

     number of k points=    64  Marzari-Vanderbilt smearing, width (Ry)=  0.0010
                       cart. coord. in units 2pi/alat
        k(    1) = (   0.0000000   0.0000000   0.0000000), wk =   0.0102041
        k(    2) = (   0.0000000   0.0448056   0.0000000), wk =   0.0204082
        k(    3) = (   0.0000000   0.0896112   0.0000000), wk =   0.0204082
        k(    4) = (   0.0000000   0.1344168   0.0000000), wk =   0.0204082
        k(    5) = (   0.0000000   0.1792224   0.0000000), wk =   0.0204082
        k(    6) = (   0.0000000   0.2240279   0.0000000), wk =   0.0204082
        k(    7) = (   0.0000000   0.2688335   0.0000000), wk =   0.0204082
        k(    8) = (   0.0000000  -0.3136391   0.0000000), wk =   0.0102041
        k(    9) = (   0.0714286   0.0000000   0.0000000), wk =   0.0204082
        k(   10) = (   0.0714286   0.0448056   0.0000000), wk =   0.0408163
        k(   11) = (   0.0714286   0.0896112   0.0000000), wk =   0.0408163
        k(   12) = (   0.0714286   0.1344168   0.0000000), wk =   0.0408163
        k(   13) = (   0.0714286   0.1792224   0.0000000), wk =   0.0408163
        k(   14) = (   0.0714286   0.2240279   0.0000000), wk =   0.0408163
        k(   15) = (   0.0714286   0.2688335   0.0000000), wk =   0.0408163
        k(   16) = (   0.0714286  -0.3136391   0.0000000), wk =   0.0204082
        k(   17) = (   0.1428571   0.0000000   0.0000000), wk =   0.0204082
        k(   18) = (   0.1428571   0.0448056   0.0000000), wk =   0.0408163
        k(   19) = (   0.1428571   0.0896112   0.0000000), wk =   0.0408163
        k(   20) = (   0.1428571   0.1344168   0.0000000), wk =   0.0408163
        k(   21) = (   0.1428571   0.1792224   0.0000000), wk =   0.0408163
        k(   22) = (   0.1428571   0.2240279   0.0000000), wk =   0.0408163
        k(   23) = (   0.1428571   0.2688335   0.0000000), wk =   0.0408163
        k(   24) = (   0.1428571  -0.3136391   0.0000000), wk =   0.0204082
        k(   25) = (   0.2142857   0.0000000   0.0000000), wk =   0.0204082
        k(   26) = (   0.2142857   0.0448056   0.0000000), wk =   0.0408163
        k(   27) = (   0.2142857   0.0896112   0.0000000), wk =   0.0408163
        k(   28) = (   0.2142857   0.1344168   0.0000000), wk =   0.0408163
        k(   29) = (   0.2142857   0.1792224   0.0000000), wk =   0.0408163
        k(   30) = (   0.2142857   0.2240279   0.0000000), wk =   0.0408163
        k(   31) = (   0.2142857   0.2688335   0.0000000), wk =   0.0408163
        k(   32) = (   0.2142857  -0.3136391   0.0000000), wk =   0.0204082
        k(   33) = (   0.2857143   0.0000000   0.0000000), wk =   0.0204082
        k(   34) = (   0.2857143   0.0448056   0.0000000), wk =   0.0408163
        k(   35) = (   0.2857143   0.0896112   0.0000000), wk =   0.0408163
        k(   36) = (   0.2857143   0.1344168   0.0000000), wk =   0.0408163
        k(   37) = (   0.2857143   0.1792224   0.0000000), wk =   0.0408163
        k(   38) = (   0.2857143   0.2240279   0.0000000), wk =   0.0408163
        k(   39) = (   0.2857143   0.2688335   0.0000000), wk =   0.0408163
        k(   40) = (   0.2857143  -0.3136391   0.0000000), wk =   0.0204082
        k(   41) = (   0.3571429   0.0000000   0.0000000), wk =   0.0204082
        k(   42) = (   0.3571429   0.0448056   0.0000000), wk =   0.0408163
        k(   43) = (   0.3571429   0.0896112   0.0000000), wk =   0.0408163
        k(   44) = (   0.3571429   0.1344168   0.0000000), wk =   0.0408163
        k(   45) = (   0.3571429   0.1792224   0.0000000), wk =   0.0408163
        k(   46) = (   0.3571429   0.2240279   0.0000000), wk =   0.0408163
        k(   47) = (   0.3571429   0.2688335   0.0000000), wk =   0.0408163
        k(   48) = (   0.3571429  -0.3136391   0.0000000), wk =   0.0204082
        k(   49) = (   0.4285714   0.0000000   0.0000000), wk =   0.0204082
        k(   50) = (   0.4285714   0.0448056   0.0000000), wk =   0.0408163
        k(   51) = (   0.4285714   0.0896112   0.0000000), wk =   0.0408163
        k(   52) = (   0.4285714   0.1344168   0.0000000), wk =   0.0408163
        k(   53) = (   0.4285714   0.1792224   0.0000000), wk =   0.0408163
        k(   54) = (   0.4285714   0.2240279   0.0000000), wk =   0.0408163
        k(   55) = (   0.4285714   0.2688335   0.0000000), wk =   0.0408163
        k(   56) = (   0.4285714  -0.3136391   0.0000000), wk =   0.0204082
        k(   57) = (  -0.5000000   0.0000000   0.0000000), wk =   0.0102041
        k(   58) = (  -0.5000000   0.0448056   0.0000000), wk =   0.0204082
        k(   59) = (  -0.5000000   0.0896112   0.0000000), wk =   0.0204082
        k(   60) = (  -0.5000000   0.1344168   0.0000000), wk =   0.0204082
        k(   61) = (  -0.5000000   0.1792224   0.0000000), wk =   0.0204082
        k(   62) = (  -0.5000000   0.2240279   0.0000000), wk =   0.0204082
        k(   63) = (  -0.5000000   0.2688335   0.0000000), wk =   0.0204082
        k(   64) = (  -0.5000000  -0.3136391   0.0000000), wk =   0.0102041

                       cryst. coord.
        k(    1) = (   0.0000000   0.0000000   0.0000000), wk =   0.0102041
        k(    2) = (   0.0000000   0.0714286   0.0000000), wk =   0.0204082
        k(    3) = (   0.0000000   0.1428571   0.0000000), wk =   0.0204082
        k(    4) = (   0.0000000   0.2142857   0.0000000), wk =   0.0204082
        k(    5) = (   0.0000000   0.2857143   0.0000000), wk =   0.0204082
        k(    6) = (   0.0000000   0.3571429   0.0000000), wk =   0.0204082
        k(    7) = (   0.0000000   0.4285714   0.0000000), wk =   0.0204082
        k(    8) = (   0.0000000  -0.5000000   0.0000000), wk =   0.0102041
        k(    9) = (   0.0714286   0.0000000   0.0000000), wk =   0.0204082
        k(   10) = (   0.0714286   0.0714286   0.0000000), wk =   0.0408163
        k(   11) = (   0.0714286   0.1428571   0.0000000), wk =   0.0408163
        k(   12) = (   0.0714286   0.2142857   0.0000000), wk =   0.0408163
        k(   13) = (   0.0714286   0.2857143   0.0000000), wk =   0.0408163
        k(   14) = (   0.0714286   0.3571429   0.0000000), wk =   0.0408163
        k(   15) = (   0.0714286   0.4285714   0.0000000), wk =   0.0408163
        k(   16) = (   0.0714286  -0.5000000   0.0000000), wk =   0.0204082
        k(   17) = (   0.1428571   0.0000000   0.0000000), wk =   0.0204082
        k(   18) = (   0.1428571   0.0714286   0.0000000), wk =   0.0408163
        k(   19) = (   0.1428571   0.1428571   0.0000000), wk =   0.0408163
        k(   20) = (   0.1428571   0.2142857   0.0000000), wk =   0.0408163
        k(   21) = (   0.1428571   0.2857143   0.0000000), wk =   0.0408163
        k(   22) = (   0.1428571   0.3571429   0.0000000), wk =   0.0408163
        k(   23) = (   0.1428571   0.4285714   0.0000000), wk =   0.0408163
        k(   24) = (   0.1428571  -0.5000000   0.0000000), wk =   0.0204082
        k(   25) = (   0.2142857   0.0000000   0.0000000), wk =   0.0204082
        k(   26) = (   0.2142857   0.0714286   0.0000000), wk =   0.0408163
        k(   27) = (   0.2142857   0.1428571   0.0000000), wk =   0.0408163
        k(   28) = (   0.2142857   0.2142857   0.0000000), wk =   0.0408163
        k(   29) = (   0.2142857   0.2857143   0.0000000), wk =   0.0408163
        k(   30) = (   0.2142857   0.3571429   0.0000000), wk =   0.0408163
        k(   31) = (   0.2142857   0.4285714   0.0000000), wk =   0.0408163
        k(   32) = (   0.2142857  -0.5000000   0.0000000), wk =   0.0204082
        k(   33) = (   0.2857143   0.0000000   0.0000000), wk =   0.0204082
        k(   34) = (   0.2857143   0.0714286   0.0000000), wk =   0.0408163
        k(   35) = (   0.2857143   0.1428571   0.0000000), wk =   0.0408163
        k(   36) = (   0.2857143   0.2142857   0.0000000), wk =   0.0408163
        k(   37) = (   0.2857143   0.2857143   0.0000000), wk =   0.0408163
        k(   38) = (   0.2857143   0.3571429   0.0000000), wk =   0.0408163
        k(   39) = (   0.2857143   0.4285714   0.0000000), wk =   0.0408163
        k(   40) = (   0.2857143  -0.5000000   0.0000000), wk =   0.0204082
        k(   41) = (   0.3571429   0.0000000   0.0000000), wk =   0.0204082
        k(   42) = (   0.3571429   0.0714286   0.0000000), wk =   0.0408163
        k(   43) = (   0.3571429   0.1428571   0.0000000), wk =   0.0408163
        k(   44) = (   0.3571429   0.2142857   0.0000000), wk =   0.0408163
        k(   45) = (   0.3571429   0.2857143   0.0000000), wk =   0.0408163
        k(   46) = (   0.3571429   0.3571429   0.0000000), wk =   0.0408163
        k(   47) = (   0.3571429   0.4285714   0.0000000), wk =   0.0408163
        k(   48) = (   0.3571429  -0.5000000   0.0000000), wk =   0.0204082
        k(   49) = (   0.4285714   0.0000000   0.0000000), wk =   0.0204082
        k(   50) = (   0.4285714   0.0714286   0.0000000), wk =   0.0408163
        k(   51) = (   0.4285714   0.1428571   0.0000000), wk =   0.0408163
        k(   52) = (   0.4285714   0.2142857   0.0000000), wk =   0.0408163
        k(   53) = (   0.4285714   0.2857143   0.0000000), wk =   0.0408163
        k(   54) = (   0.4285714   0.3571429   0.0000000), wk =   0.0408163
        k(   55) = (   0.4285714   0.4285714   0.0000000), wk =   0.0408163
        k(   56) = (   0.4285714  -0.5000000   0.0000000), wk =   0.0204082
        k(   57) = (  -0.5000000   0.0000000   0.0000000), wk =   0.0102041
        k(   58) = (  -0.5000000   0.0714286   0.0000000), wk =   0.0204082
        k(   59) = (  -0.5000000   0.1428571   0.0000000), wk =   0.0204082
        k(   60) = (  -0.5000000   0.2142857   0.0000000), wk =   0.0204082
        k(   61) = (  -0.5000000   0.2857143   0.0000000), wk =   0.0204082
        k(   62) = (  -0.5000000   0.3571429   0.0000000), wk =   0.0204082
        k(   63) = (  -0.5000000   0.4285714   0.0000000), wk =   0.0204082
        k(   64) = (  -0.5000000  -0.5000000   0.0000000), wk =   0.0102041

     Dense  grid:  1889203 G-vectors     FFT dimensions: (  80, 120, 432)

     Dynamical RAM for                 wfc:      23.43 MB

     Dynamical RAM for     wfc (w. buffer):     281.13 MB

     Dynamical RAM for           str. fact:      14.41 MB

     Dynamical RAM for           local pot:       0.00 MB

     Dynamical RAM for          nlocal pot:      57.67 MB

     Dynamical RAM for                qrad:       2.15 MB

     Dynamical RAM for          rho,v,vnew:      45.35 MB

     Dynamical RAM for               rhoin:      15.12 MB

     Dynamical RAM for            rho*nmix:     115.31 MB

     Dynamical RAM for           G-vectors:      30.63 MB

     Dynamical RAM for          h,s,v(r/c):       0.12 MB

     Dynamical RAM for          <psi|beta>:       0.03 MB

     Dynamical RAM for                 psi:      46.86 MB

     Dynamical RAM for                hpsi:      46.86 MB

     Dynamical RAM for                spsi:      46.86 MB

     Dynamical RAM for      wfcinit/wfcrot:      57.69 MB

     Dynamical RAM for           addusdens:      62.46 MB

     Estimated static dynamical RAM per process >     507.63 MB

     Estimated max dynamical RAM per process >     763.65 MB

     Estimated total dynamical RAM >      15.65 GB
 ----2D----2D----2D----2D----2D----2D----2D----2D----2D----2D----2D----2D
  The code is running with the 2D cutoff
  Please refer to:
  Sohier, T., Calandra, M., & Mauri, F. (2017), 
  Density functional perturbation theory for gated two-dimensional heterostructures:
  Theoretical developments and application to flexural phonons in graphene.
  Physical Review B, 96(7), 75448. https://doi.org/10.1103/PhysRevB.96.075448
 ----2D----2D----2D----2D----2D----2D----2D----2D----2D----2D----2D----2D

     Initial potential from superposition of free atoms

     starting charge      43.9998, renormalised to      44.0000

     negative rho (up, down):  3.271E-03 0.000E+00
     Starting wfcs are   32 randomized atomic wfcs

     total cpu time spent up to now is       69.6 secs

     Self-consistent Calculation

     iteration #  1     ecut=   550.00 Ry     beta= 0.70
     Davidson diagonalization with overlap

---- Real-time Memory Report at c_bands before calling an iterative solver
           591 MiB given to the printing process from OS
             0 MiB allocation reported by mallinfo(arena+hblkhd)
         11985 MiB available memory on the node where the printing process lives
------------------
     ethr =  1.00E-02,  avg # of iterations =  3.1

     Threshold (ethr) on eigenvalues was too large:
     Diagonalizing with lowered threshold

     Davidson diagonalization with overlap

---- Real-time Memory Report at c_bands before calling an iterative solver
           716 MiB given to the printing process from OS
             0 MiB allocation reported by mallinfo(arena+hblkhd)
         12020 MiB available memory on the node where the printing process lives
------------------
     ethr =  9.96E-04,  avg # of iterations =  1.0

     negative rho (up, down):  8.937E-04 0.000E+00

     total cpu time spent up to now is      366.4 secs

     total energy              =    -240.13807237 Ry
     estimated scf accuracy    <       0.42523858 Ry

     iteration #  2     ecut=   550.00 Ry     beta= 0.70
     Davidson diagonalization with overlap

---- Real-time Memory Report at c_bands before calling an iterative solver
           744 MiB given to the printing process from OS
             0 MiB allocation reported by mallinfo(arena+hblkhd)
         10987 MiB available memory on the node where the printing process lives
------------------
     ethr =  9.66E-04,  avg # of iterations =  3.0

     negative rho (up, down):  5.171E-04 0.000E+00

     total cpu time spent up to now is      559.4 secs

     total energy              =    -240.15697985 Ry
     estimated scf accuracy    <       0.32309847 Ry

     iteration #  3     ecut=   550.00 Ry     beta= 0.70
     Davidson diagonalization with overlap

---- Real-time Memory Report at c_bands before calling an iterative solver
           792 MiB given to the printing process from OS
             0 MiB allocation reported by mallinfo(arena+hblkhd)
         10849 MiB available memory on the node where the printing process lives
------------------
     ethr =  7.34E-04,  avg # of iterations =  2.5

     negative rho (up, down):  9.526E-05 0.000E+00

     total cpu time spent up to now is      727.4 secs

     total energy              =    -240.24366353 Ry
     estimated scf accuracy    <       0.02689305 Ry

     iteration #  4     ecut=   550.00 Ry     beta= 0.70
     Davidson diagonalization with overlap

---- Real-time Memory Report at c_bands before calling an iterative solver
           807 MiB given to the printing process from OS
             0 MiB allocation reported by mallinfo(arena+hblkhd)
         10754 MiB available memory on the node where the printing process lives
------------------
     ethr =  6.11E-05,  avg # of iterations =  3.1

     negative rho (up, down):  1.235E-05 0.000E+00

     total cpu time spent up to now is      891.2 secs

     total energy              =    -240.24704487 Ry
     estimated scf accuracy    <       0.00100191 Ry

     iteration #  5     ecut=   550.00 Ry     beta= 0.70
     Davidson diagonalization with overlap

---- Real-time Memory Report at c_bands before calling an iterative solver
           821 MiB given to the printing process from OS
             0 MiB allocation reported by mallinfo(arena+hblkhd)
         10694 MiB available memory on the node where the printing process lives
------------------
     ethr =  2.28E-06,  avg # of iterations =  7.0

     negative rho (up, down):  1.666E-06 0.000E+00

     total cpu time spent up to now is     1153.7 secs

     total energy              =    -240.24736570 Ry
     estimated scf accuracy    <       0.00003385 Ry

     iteration #  6     ecut=   550.00 Ry     beta= 0.70
     Davidson diagonalization with overlap

---- Real-time Memory Report at c_bands before calling an iterative solver
           835 MiB given to the printing process from OS
             0 MiB allocation reported by mallinfo(arena+hblkhd)
          9054 MiB available memory on the node where the printing process lives
------------------
     ethr =  7.69E-08,  avg # of iterations =  3.0

     negative rho (up, down):  2.309E-06 0.000E+00

     total cpu time spent up to now is     1327.9 secs

     total energy              =    -240.24737007 Ry
     estimated scf accuracy    <       0.00000423 Ry

     iteration #  7     ecut=   550.00 Ry     beta= 0.70
     Davidson diagonalization with overlap

---- Real-time Memory Report at c_bands before calling an iterative solver
           850 MiB given to the printing process from OS
             0 MiB allocation reported by mallinfo(arena+hblkhd)
          7413 MiB available memory on the node where the printing process lives
------------------
     ethr =  9.61E-09,  avg # of iterations =  2.9

     negative rho (up, down):  2.365E-06 0.000E+00

     total cpu time spent up to now is     1507.8 secs

     total energy              =    -240.24737155 Ry
     estimated scf accuracy    <       0.00000054 Ry

     iteration #  8     ecut=   550.00 Ry     beta= 0.70
     Davidson diagonalization with overlap

---- Real-time Memory Report at c_bands before calling an iterative solver
           864 MiB given to the printing process from OS
             0 MiB allocation reported by mallinfo(arena+hblkhd)
          6577 MiB available memory on the node where the printing process lives
------------------
     ethr =  1.22E-09,  avg # of iterations =  2.1

     negative rho (up, down):  2.383E-06 0.000E+00

     total cpu time spent up to now is     1668.4 secs

     total energy              =    -240.24737168 Ry
     estimated scf accuracy    <          9.9E-10 Ry

     iteration #  9     ecut=   550.00 Ry     beta= 0.70
     Davidson diagonalization with overlap

---- Real-time Memory Report at c_bands before calling an iterative solver
           879 MiB given to the printing process from OS
             0 MiB allocation reported by mallinfo(arena+hblkhd)
          6495 MiB available memory on the node where the printing process lives
------------------
     ethr =  2.25E-12,  avg # of iterations =  6.2

     negative rho (up, down):  2.390E-06 0.000E+00

     total cpu time spent up to now is     1981.8 secs

     total energy              =    -240.24737168 Ry
     estimated scf accuracy    <          2.9E-10 Ry

     iteration # 10     ecut=   550.00 Ry     beta= 0.70
     Davidson diagonalization with overlap

---- Real-time Memory Report at c_bands before calling an iterative solver
           893 MiB given to the printing process from OS
             0 MiB allocation reported by mallinfo(arena+hblkhd)
          6433 MiB available memory on the node where the printing process lives
------------------
     ethr =  6.69E-13,  avg # of iterations =  2.1

     negative rho (up, down):  2.388E-06 0.000E+00

     total cpu time spent up to now is     2136.9 secs

     End of self-consistent calculation

          k = 0.0000 0.0000 0.0000 (236167 PWs)   bands (ev):

   -33.5433 -33.2621 -32.0094 -31.8918 -24.1696 -20.9000 -18.9441 -16.4830
   -15.7087 -15.3408 -14.0593 -13.6404 -13.0441 -12.9166 -12.6828 -10.8079
   -10.6644 -10.6088  -9.9564  -9.6325  -9.4036  -8.0837  -4.5392  -2.0879
    -1.9743  -0.9434

     occupation numbers 
     1.0000   1.0000   1.0000   1.0000   1.0000   1.0000   1.0000   1.0000
     1.0000   1.0000   1.0000   1.0000   1.0000   1.0000   1.0000   1.0000
     1.0000   1.0000   1.0000   1.0000   1.0000   1.0000   0.0000   0.0000
     0.0000   0.0000

          k = 0.0000 0.0448 0.0000 (236293 PWs)   bands (ev):

   -33.5309 -33.2530 -32.0244 -31.9059 -24.1444 -20.9971 -18.8627 -16.4665
   -15.6611 -15.3561 -14.0389 -13.6455 -13.0839 -12.8761 -12.6885 -10.8280
   -10.6791 -10.6646  -9.9820  -9.6166  -9.3870  -8.1057  -4.4795  -2.0772
    -1.9763  -0.8665

     occupation numbers 
     1.0000   1.0000   1.0000   1.0000   1.0000   1.0000   1.0000   1.0000
     1.0000   1.0000   1.0000   1.0000   1.0000   1.0000   1.0000   1.0000
     1.0000   1.0000   1.0000   1.0000   1.0000   1.0000   0.0000   0.0000
     0.0000   0.0000

          k = 0.0000 0.0896 0.0000 (236335 PWs)   bands (ev):

   -33.4943 -33.2269 -32.0672 -31.9468 -24.0693 -21.2470 -18.6560 -16.4295
   -15.5259 -15.3892 -13.9786 -13.6633 -13.1948 -12.7647 -12.7083 -10.8825
   -10.8083 -10.7207 -10.0494  -9.5915  -9.3392  -8.1683  -4.3082  -2.0455
    -1.9848  -0.6428

     occupation numbers 
     1.0000   1.0000   1.0000   1.0000   1.0000   1.0000   1.0000   1.0000
     1.0000   1.0000   1.0000   1.0000   1.0000   1.0000   1.0000   1.0000
     1.0000   1.0000   1.0000   1.0000   1.0000   1.0000   0.0000   0.0000
     0.0000   0.0000

          k = 0.0000 0.1344 0.0000 (236387 PWs)   bands (ev):

   -33.4361 -33.1878 -32.1314 -32.0103 -23.9450 -21.5790 -18.3836 -16.4125
   -15.3988 -15.3237 -13.8808 -13.7000 -13.3696 -12.7491 -12.5928 -10.9961
   -10.9555 -10.7828 -10.1343  -9.5961  -9.2644  -8.2635  -4.0452  -2.0081
    -1.9932  -0.2900

     occupation numbers 
     1.0000   1.0000   1.0000   1.0000   1.0000   1.0000   1.0000   1.0000
     1.0000   1.0000   1.0000   1.0000   1.0000   1.0000   1.0000   1.0000
     1.0000   1.0000   1.0000   1.0000   1.0000   1.0000   0.0000   0.0000
     0.0000   0.0000

          k = 0.0000 0.1792 0.0000 (236299 PWs)   bands (ev):

   -33.3608 -33.1437 -32.2054 -32.0894 -23.7731 -21.9437 -18.0816 -16.4728
   -15.3279 -15.0829 -13.7647 -13.7499 -13.5980 -12.8201 -12.3771 -11.1937
   -11.0252 -10.8573 -10.2052  -9.6545  -9.1676  -8.3816  -3.7167  -2.0613
    -1.9206  -0.7977

     occupation numbers 
     1.0000   1.0000   1.0000   1.0000   1.0000   1.0000   1.0000   1.0000
     1.0000   1.0000   1.0000   1.0000   1.0000   1.0000   1.0000   1.0000
     1.0000   1.0000   1.0000   1.0000   1.0000   1.0000   0.0000   0.0000
     0.0000   0.0000

          k = 0.0000 0.2240 0.0000 (236363 PWs)   bands (ev):

   -33.2758 -33.1078 -32.2718 -32.1739 -23.5558 -22.3125 -17.7676 -16.6324
   -15.1569 -14.8371 -13.8654 -13.8588 -13.5926 -12.9279 -12.1440 -11.3814
   -11.0712 -10.9346 -10.2308  -9.7692  -9.0536  -8.5137  -3.3505  -2.1676
    -1.8268  -1.0796

     occupation numbers 
     1.0000   1.0000   1.0000   1.0000   1.0000   1.0000   1.0000   1.0000
     1.0000   1.0000   1.0000   1.0000   1.0000   1.0000   1.0000   1.0000
     1.0000   1.0000   1.0000   1.0000   1.0000   1.0000   0.0000   0.0000
     0.0000   0.0000

          k = 0.0000 0.2688 0.0000 (236216 PWs)   bands (ev):

   -33.1926 -33.0981 -32.3090 -32.2503 -23.2962 -22.6678 -17.4526 -16.8673
   -14.9197 -14.6477 -14.0958 -14.0012 -13.4183 -13.0711 -11.9226 -11.5556
   -11.0821 -11.0049 -10.1882  -9.9219  -8.9269  -8.6523  -2.9770  -2.3541
    -1.7074  -1.3428

     occupation numbers 
     1.0000   1.0000   1.0000   1.0000   1.0000   1.0000   1.0000   1.0000
     1.0000   1.0000   1.0000   1.0000   1.0000   1.0000   1.0000   1.0000
     1.0000   1.0000   1.0000   1.0000   1.0000   1.0000   0.0000   0.0000
     0.0000   0.0000

          k = 0.0000-0.3136 0.0000 (236236 PWs)   bands (ev):

   -33.1278 -33.1278 -32.3010 -32.3010 -22.9983 -22.9983 -17.1477 -17.1477
   -14.6868 -14.6868 -14.1348 -14.1348 -13.2395 -13.2395 -11.7291 -11.7291
   -11.0575 -11.0575 -10.0760 -10.0760  -8.7917  -8.7917  -2.6317  -2.6317
    -1.5516  -1.5516

     occupation numbers 
     1.0000   1.0000   1.0000   1.0000   1.0000   1.0000   1.0000   1.0000
     1.0000   1.0000   1.0000   1.0000   1.0000   1.0000   1.0000   1.0000
     1.0000   1.0000   1.0000   1.0000   1.0000   1.0000   0.0000   0.0000
     0.0000   0.0000

          k = 0.0714 0.0000 0.0000 (236247 PWs)   bands (ev):

   -33.5082 -33.2311 -32.0082 -31.8915 -24.1060 -20.8381 -18.9167 -16.4316
   -15.6771 -15.3481 -14.3759 -13.6802 -13.0062 -12.8846 -12.8766 -10.9623
   -10.7893 -10.6340  -9.9895  -9.5840  -9.5675  -8.3336  -4.4360  -1.6157
    -1.5984  -1.1341

     occupation numbers 
     1.0000   1.0000   1.0000   1.0000   1.0000   1.0000   1.0000   1.0000
     1.0000   1.0000   1.0000   1.0000   1.0000   1.0000   1.0000   1.0000
     1.0000   1.0000   1.0000   1.0000   1.0000   1.0000   0.0000   0.0000
     0.0000   0.0000

          k = 0.0714 0.0448 0.0000 (236293 PWs)   bands (ev):

   -33.4959 -33.2222 -32.0227 -31.9052 -24.0809 -20.9363 -18.8348 -16.4171
   -15.6323 -15.3635 -14.3555 -13.6876 -13.0469 -12.8918 -12.8351 -10.9960
   -10.8037 -10.6531 -10.0070  -9.5809  -9.5533  -8.3574  -4.3799  -1.6179
    -1.5890  -1.0630

     occupation numbers 
     1.0000   1.0000   1.0000   1.0000   1.0000   1.0000   1.0000   1.0000
     1.0000   1.0000   1.0000   1.0000   1.0000   1.0000   1.0000   1.0000
     1.0000   1.0000   1.0000   1.0000   1.0000   1.0000   0.0000   0.0000
     0.0000   0.0000

          k = 0.0714 0.0896 0.0000 (236309 PWs)   bands (ev):

   -33.4600 -33.1966 -32.0644 -31.9451 -24.0061 -21.1878 -18.6276 -16.3860
   -15.5061 -15.3969 -14.2950 -13.7120 -13.1556 -12.9148 -12.7238 -11.0764
   -10.8428 -10.7182 -10.0564  -9.5811  -9.5100  -8.4231  -4.2176  -1.6277
    -1.5612  -0.8685

     occupation numbers 
     1.0000   1.0000   1.0000   1.0000   1.0000   1.0000   1.0000   1.0000
     1.0000   1.0000   1.0000   1.0000   1.0000   1.0000   1.0000   1.0000
     1.0000   1.0000   1.0000   1.0000   1.0000   1.0000   0.0000   0.0000
     0.0000   0.0000

          k = 0.0714 0.1344 0.0000 (236268 PWs)   bands (ev):

   -33.4028 -33.1583 -32.1267 -32.0069 -23.8822 -21.5209 -18.3563 -16.3784
   -15.4075 -15.3203 -14.1991 -13.7592 -13.3190 -12.9575 -12.5544 -11.1672
   -10.8968 -10.8317 -10.1250  -9.6070  -9.4386  -8.5174  -3.9660  -1.6570
    -1.5165  -0.6602

     occupation numbers 
     1.0000   1.0000   1.0000   1.0000   1.0000   1.0000   1.0000   1.0000
     1.0000   1.0000   1.0000   1.0000   1.0000   1.0000   1.0000   1.0000
     1.0000   1.0000   1.0000   1.0000   1.0000   1.0000   0.0000   0.0000
     0.0000   0.0000

          k = 0.0714 0.1792 0.0000 (236319 PWs)   bands (ev):

   -33.3288 -33.1150 -32.1986 -32.0840 -23.7110 -21.8859 -18.0570 -16.4486
   -15.3408 -15.1048 -14.0866 -13.8359 -13.5092 -13.0242 -12.3425 -11.2498
   -10.9723 -10.9549 -10.1899  -9.6785  -9.3444  -8.6263  -3.6466  -1.7322
    -1.4569  -0.7247

     occupation numbers 
     1.0000   1.0000   1.0000   1.0000   1.0000   1.0000   1.0000   1.0000
     1.0000   1.0000   1.0000   1.0000   1.0000   1.0000   1.0000   1.0000
     1.0000   1.0000   1.0000   1.0000   1.0000   1.0000   0.0000   0.0000
     0.0000   0.0000

          k = 0.0714 0.2240 0.0000 (236270 PWs)   bands (ev):

   -33.2453 -33.0799 -32.2632 -32.1665 -23.4945 -22.2544 -17.7464 -16.6148
   -15.1819 -14.8937 -14.0417 -13.9444 -13.6276 -13.1186 -12.1113 -11.3461
   -11.0868 -11.0099 -10.2219  -9.7993  -9.2337  -8.7422  -3.2822  -1.8932
    -1.3852  -0.9243

     occupation numbers 
     1.0000   1.0000   1.0000   1.0000   1.0000   1.0000   1.0000   1.0000
     1.0000   1.0000   1.0000   1.0000   1.0000   1.0000   1.0000   1.0000
     1.0000   1.0000   1.0000   1.0000   1.0000   1.0000   0.0000   0.0000
     0.0000   0.0000

          k = 0.0714 0.2688 0.0000 (236262 PWs)   bands (ev):

   -33.1636 -33.0705 -32.2991 -32.2412 -23.2357 -22.6090 -17.4349 -16.8522
   -14.9671 -14.7420 -14.1500 -14.0747 -13.5493 -13.2431 -11.8853 -11.4947
   -11.1223 -11.0599 -10.1934  -9.9504  -9.1129  -8.8630  -2.8954  -2.1621
    -1.3031  -1.0900

     occupation numbers 
     1.0000   1.0000   1.0000   1.0000   1.0000   1.0000   1.0000   1.0000
     1.0000   1.0000   1.0000   1.0000   1.0000   1.0000   1.0000   1.0000
     1.0000   1.0000   1.0000   1.0000   1.0000   1.0000   0.0000   0.0000
     0.0000   0.0000

          k = 0.0714-0.3136 0.0000 (236314 PWs)   bands (ev):

   -33.0998 -33.0998 -32.2909 -32.2909 -22.9387 -22.9387 -17.1323 -17.1323
   -14.7710 -14.7710 -14.1823 -14.1823 -13.3939 -13.3939 -11.6790 -11.6790
   -11.1021 -11.1021 -10.0954 -10.0954  -8.9876  -8.9876  -2.5110  -2.5110
    -1.2087  -1.2087

     occupation numbers 
     1.0000   1.0000   1.0000   1.0000   1.0000   1.0000   1.0000   1.0000
     1.0000   1.0000   1.0000   1.0000   1.0000   1.0000   1.0000   1.0000
     1.0000   1.0000   1.0000   1.0000   1.0000   1.0000   0.0000   0.0000
     0.0000   0.0000

          k = 0.1429 0.0000 0.0000 (236271 PWs)   bands (ev):

   -33.4059 -33.1412 -32.0077 -31.8934 -23.9158 -20.6537 -18.8503 -16.2815
   -15.5869 -15.3856 -15.1235 -13.8205 -13.4090 -13.0004 -12.7605 -11.2799
   -11.1161 -10.7377 -10.1596  -9.8666  -9.5431  -8.9088  -4.1571  -1.3970
    -0.7776  -0.3367

     occupation numbers 
     1.0000   1.0000   1.0000   1.0000   1.0000   1.0000   1.0000   1.0000
     1.0000   1.0000   1.0000   1.0000   1.0000   1.0000   1.0000   1.0000
     1.0000   1.0000   1.0000   1.0000   1.0000   1.0000   0.0000   0.0000
     0.0000   0.0000

          k = 0.1429 0.0448 0.0000 (236314 PWs)   bands (ev):

   -33.3943 -33.1327 -32.0210 -31.9060 -23.8910 -20.7550 -18.7669 -16.2735
   -15.5608 -15.4023 -15.0864 -13.8401 -13.4086 -13.0422 -12.7247 -11.3031
   -11.1247 -10.7249 -10.1526  -9.8650  -9.5557  -8.9387  -4.1094  -1.3249
    -0.7808  -0.3328

     occupation numbers 
     1.0000   1.0000   1.0000   1.0000   1.0000   1.0000   1.0000   1.0000
     1.0000   1.0000   1.0000   1.0000   1.0000   1.0000   1.0000   1.0000
     1.0000   1.0000   1.0000   1.0000   1.0000   1.0000   0.0000   0.0000
     0.0000   0.0000

          k = 0.1429 0.0896 0.0000 (236313 PWs)   bands (ev):

   -33.3603 -33.1086 -32.0591 -31.9427 -23.8170 -21.0118 -18.5594 -16.2619
   -15.4923 -15.4398 -14.9741 -13.8976 -13.4086 -13.1566 -12.6255 -11.3487
   -11.1462 -10.7173 -10.1441  -9.8499  -9.5940  -9.0160  -3.9695  -1.1241
    -0.7940  -0.3220

     occupation numbers 
     1.0000   1.0000   1.0000   1.0000   1.0000   1.0000   1.0000   1.0000
     1.0000   1.0000   1.0000   1.0000   1.0000   1.0000   1.0000   1.0000
     1.0000   1.0000   1.0000   1.0000   1.0000   1.0000   0.0000   0.0000
     0.0000   0.0000

          k = 0.1429 0.1344 0.0000 (236289 PWs)   bands (ev):

   -33.3061 -33.0726 -32.1160 -31.9997 -23.6946 -21.3479 -18.2932 -16.2853
   -15.4586 -15.4007 -14.7933 -13.9877 -13.4130 -13.3245 -12.4736 -11.3805
   -11.1706 -10.7645 -10.1573  -9.8017  -9.6631  -9.1092  -3.7468  -0.9420
    -0.7395  -0.3065

     occupation numbers 
     1.0000   1.0000   1.0000   1.0000   1.0000   1.0000   1.0000   1.0000
     1.0000   1.0000   1.0000   1.0000   1.0000   1.0000   1.0000   1.0000
     1.0000   1.0000   1.0000   1.0000   1.0000   1.0000   0.0000   0.0000
     0.0000   0.0000

          k = 0.1429 0.1792 0.0000 (236273 PWs)   bands (ev):

   -33.2361 -33.0320 -32.1817 -32.0709 -23.5253 -21.7136 -18.0036 -16.3890
   -15.4133 -15.2997 -14.5739 -14.0996 -13.5183 -13.4291 -12.2811 -11.3838
   -11.1886 -10.8867 -10.1931  -9.7711  -9.7184  -9.1891  -3.4540  -1.1037
    -0.4595  -0.2905

     occupation numbers 
     1.0000   1.0000   1.0000   1.0000   1.0000   1.0000   1.0000   1.0000
     1.0000   1.0000   1.0000   1.0000   1.0000   1.0000   1.0000   1.0000
     1.0000   1.0000   1.0000   1.0000   1.0000   1.0000   0.0000   0.0000
     0.0000   0.0000

          k = 0.1429 0.2240 0.0000 (236281 PWs)   bands (ev):

   -33.1571 -32.9992 -32.2405 -32.1474 -23.3111 -22.0810 -17.7048 -16.5785
   -15.3041 -15.1999 -14.3771 -14.2144 -13.6857 -13.4674 -12.0631 -11.3690
   -11.1968 -11.0637 -10.2272  -9.9110  -9.6149  -9.2541  -3.1049  -1.4398
    -0.3403  -0.2794

     occupation numbers 
     1.0000   1.0000   1.0000   1.0000   1.0000   1.0000   1.0000   1.0000
     1.0000   1.0000   1.0000   1.0000   1.0000   1.0000   1.0000   1.0000
     1.0000   1.0000   1.0000   1.0000   1.0000   1.0000   0.0000   0.0000
     0.0000   0.0000

          k = 0.1429 0.2688 0.0000 (236266 PWs)   bands (ev):

   -33.0798 -32.9910 -32.2727 -32.2170 -23.0549 -22.4336 -17.4037 -16.8266
   -15.1785 -15.1214 -14.3019 -14.2997 -13.7292 -13.5385 -11.8333 -11.4113
   -11.2061 -11.2023 -10.2276 -10.0554  -9.5068  -9.3224  -2.7128  -1.8563
    -0.3100  -0.2783

     occupation numbers 
     1.0000   1.0000   1.0000   1.0000   1.0000   1.0000   1.0000   1.0000
     1.0000   1.0000   1.0000   1.0000   1.0000   1.0000   1.0000   1.0000
     1.0000   1.0000   1.0000   1.0000   1.0000   1.0000   0.0000   0.0000
     0.0000   0.0000

          k = 0.1429-0.3136 0.0000 (236326 PWs)   bands (ev):

   -33.0192 -33.0192 -32.2639 -32.2639 -22.7607 -22.7607 -17.1074 -17.1074
   -15.1044 -15.1044 -14.3229 -14.3229 -13.6414 -13.6414 -11.6033 -11.6033
   -11.2151 -11.2151 -10.1699 -10.1699  -9.4066  -9.4066  -2.2909  -2.2909
    -0.2894  -0.2894

     occupation numbers 
     1.0000   1.0000   1.0000   1.0000   1.0000   1.0000   1.0000   1.0000
     1.0000   1.0000   1.0000   1.0000   1.0000   1.0000   1.0000   1.0000
     1.0000   1.0000   1.0000   1.0000   1.0000   1.0000   0.0000   0.0000
     0.0000   0.0000

          k = 0.2143 0.0000 0.0000 (236301 PWs)   bands (ev):

   -33.2460 -33.0005 -32.0171 -31.9052 -23.6008 -20.3505 -18.8099 -16.0477
   -16.0023 -15.5204 -15.4516 -14.0991 -14.0543 -13.0914 -12.5831 -11.5580
   -11.5307 -10.9702 -10.5633 -10.0197  -9.6134  -9.5365  -3.7642  -1.5345
     0.0976   0.9493

     occupation numbers 
     1.0000   1.0000   1.0000   1.0000   1.0000   1.0000   1.0000   1.0000
     1.0000   1.0000   1.0000   1.0000   1.0000   1.0000   1.0000   1.0000
     1.0000   1.0000   1.0000   1.0000   1.0000   1.0000   0.0000   0.0000
     0.0000   0.0000

          k = 0.2143 0.0448 0.0000 (236298 PWs)   bands (ev):

   -33.2355 -32.9930 -32.0284 -31.9160 -23.5765 -20.4579 -18.7257 -16.0537
   -16.0004 -15.5440 -15.3901 -14.1961 -13.9662 -13.1361 -12.5596 -11.5664
   -11.5264 -10.9333 -10.5404 -10.0191  -9.6597  -9.5471  -3.7260  -1.4663
     0.0889   0.9126

     occupation numbers 
     1.0000   1.0000   1.0000   1.0000   1.0000   1.0000   1.0000   1.0000
     1.0000   1.0000   1.0000   1.0000   1.0000   1.0000   1.0000   1.0000
     1.0000   1.0000   1.0000   1.0000   1.0000   1.0000   0.0000   0.0000
     0.0000   0.0000

          k = 0.2143 0.0896 0.0000 (236258 PWs)   bands (ev):

   -33.2046 -32.9714 -32.0605 -31.9475 -23.5041 -20.7237 -18.5244 -16.0861
   -15.9852 -15.5988 -15.2252 -14.3134 -13.8724 -13.2582 -12.4905 -11.5746
   -11.5148 -10.8555 -10.4800 -10.0163  -9.7790  -9.5826  -3.6122  -1.2739
     0.0496   0.7612

     occupation numbers 
     1.0000   1.0000   1.0000   1.0000   1.0000   1.0000   1.0000   1.0000
     1.0000   1.0000   1.0000   1.0000   1.0000   1.0000   1.0000   1.0000
     1.0000   1.0000   1.0000   1.0000   1.0000   1.0000   0.0000   0.0000
     0.0000   0.0000

          k = 0.2143 0.1344 0.0000 (236256 PWs)   bands (ev):

   -33.1556 -32.9393 -32.1087 -31.9967 -23.3841 -21.0644 -18.2762 -16.1840
   -15.9460 -15.6405 -14.9979 -14.4227 -13.7942 -13.4283 -12.3786 -11.5607
   -11.4966 -10.8069 -10.4058 -10.0052  -9.9364  -9.6316  -3.4251  -1.0038
    -0.0703   0.5596

     occupation numbers 
     1.0000   1.0000   1.0000   1.0000   1.0000   1.0000   1.0000   1.0000
     1.0000   1.0000   1.0000   1.0000   1.0000   1.0000   1.0000   1.0000
     1.0000   1.0000   1.0000   1.0000   1.0000   1.0000   0.0000   0.0000
     0.0000   0.0000

          k = 0.2143 0.1792 0.0000 (236244 PWs)   bands (ev):

   -33.0924 -32.9034 -32.1642 -32.0584 -23.2181 -21.4304 -18.0124 -16.3681
   -15.8830 -15.6419 -14.7582 -14.5121 -13.7363 -13.6075 -12.2277 -11.5223
   -11.4698 -10.8556 -10.3526 -10.0887  -9.9698  -9.6725  -3.1685  -0.8522
    -0.1800   0.4806

     occupation numbers 
     1.0000   1.0000   1.0000   1.0000   1.0000   1.0000   1.0000   1.0000
     1.0000   1.0000   1.0000   1.0000   1.0000   1.0000   1.0000   1.0000
     1.0000   1.0000   1.0000   1.0000   1.0000   1.0000   0.0000   0.0000
     0.0000   0.0000

          k = 0.2143 0.2240 0.0000 (236230 PWs)   bands (ev):

   -33.0210 -32.8750 -32.2134 -32.1252 -23.0079 -21.7954 -17.7407 -16.6139
   -15.8048 -15.6251 -14.5710 -14.5668 -13.7445 -13.7054 -12.0415 -11.4758
   -11.4329 -11.0182 -10.3411 -10.2104  -9.9016  -9.6950  -2.8478  -1.1370
     0.0680   0.5278

     occupation numbers 
     1.0000   1.0000   1.0000   1.0000   1.0000   1.0000   1.0000   1.0000
     1.0000   1.0000   1.0000   1.0000   1.0000   1.0000   1.0000   1.0000
     1.0000   1.0000   1.0000   1.0000   1.0000   1.0000   0.0000   0.0000
     0.0000   0.0000

          k = 0.2143 0.2688 0.0000 (236256 PWs)   bands (ev):

   -32.9510 -32.8690 -32.2391 -32.1867 -22.7562 -22.1442 -17.4618 -16.8901
   -15.7244 -15.6244 -14.5727 -14.5033 -13.7841 -13.7093 -11.8248 -11.4629
   -11.3904 -11.2304 -10.3511 -10.2987  -9.8212  -9.7153  -2.4696  -1.5861
     0.3714   0.6759

     occupation numbers 
     1.0000   1.0000   1.0000   1.0000   1.0000   1.0000   1.0000   1.0000
     1.0000   1.0000   1.0000   1.0000   1.0000   1.0000   1.0000   1.0000
     1.0000   1.0000   1.0000   1.0000   1.0000   1.0000   0.0000   0.0000
     0.0000   0.0000

          k = 0.2143-0.3136 0.0000 (236242 PWs)   bands (ev):

   -32.8957 -32.8957 -32.2292 -32.2292 -22.4667 -22.4667 -17.1765 -17.1765
   -15.6588 -15.6588 -14.5345 -14.5345 -13.7469 -13.7469 -11.5967 -11.5967
   -11.3470 -11.3470 -10.3454 -10.3454  -9.7551  -9.7551  -2.0435  -2.0435
     0.5422   0.5422

     occupation numbers 
     1.0000   1.0000   1.0000   1.0000   1.0000   1.0000   1.0000   1.0000
     1.0000   1.0000   1.0000   1.0000   1.0000   1.0000   1.0000   1.0000
     1.0000   1.0000   1.0000   1.0000   1.0000   1.0000   0.0000   0.0000
     0.0000   0.0000

          k = 0.2857 0.0000 0.0000 (236201 PWs)   bands (ev):

   -33.0435 -32.8228 -32.0492 -31.9377 -23.1639 -19.9348 -18.9737 -16.6789
   -15.9098 -15.7706 -15.2937 -14.5421 -14.4916 -13.2789 -12.4042 -11.8708
   -11.7073 -11.3481 -10.9838 -10.1302 -10.0630  -9.7936  -3.3042  -1.4769
     0.4938   1.4921

     occupation numbers 
     1.0000   1.0000   1.0000   1.0000   1.0000   1.0000   1.0000   1.0000
     1.0000   1.0000   1.0000   1.0000   1.0000   1.0000   1.0000   1.0000
     1.0000   1.0000   1.0000   1.0000   1.0000   1.0000   0.0000   0.0000
     0.0000   0.0000

          k = 0.2857 0.0448 0.0000 (236169 PWs)   bands (ev):

   -33.0346 -32.8165 -32.0577 -31.9461 -23.1404 -20.0557 -18.8913 -16.6502
   -15.9879 -15.7625 -15.2532 -14.6434 -14.3627 -13.3275 -12.3875 -11.8632
   -11.7099 -11.2941 -10.9469 -10.1352 -10.1223  -9.7779  -3.2744  -1.4218
     0.4633   1.3970

     occupation numbers 
     1.0000   1.0000   1.0000   1.0000   1.0000   1.0000   1.0000   1.0000
     1.0000   1.0000   1.0000   1.0000   1.0000   1.0000   1.0000   1.0000
     1.0000   1.0000   1.0000   1.0000   1.0000   1.0000   0.0000   0.0000
     0.0000   0.0000

          k = 0.2857 0.0896 0.0000 (236173 PWs)   bands (ev):

   -33.0084 -32.7987 -32.0821 -31.9709 -23.0701 -20.3365 -18.7161 -16.5724
   -16.1743 -15.7708 -15.1404 -14.7304 -14.2026 -13.4502 -12.3427 -11.8399
   -11.7019 -11.1617 -10.8506 -10.3000 -10.1004  -9.7728  -3.1840  -1.2654
     0.3574   1.2511

     occupation numbers 
     1.0000   1.0000   1.0000   1.0000   1.0000   1.0000   1.0000   1.0000
     1.0000   1.0000   1.0000   1.0000   1.0000   1.0000   1.0000   1.0000
     1.0000   1.0000   1.0000   1.0000   1.0000   1.0000   0.0000   0.0000
     0.0000   0.0000

          k = 0.2857 0.1344 0.0000 (236188 PWs)   bands (ev):

   -32.9669 -32.7725 -32.1186 -32.0097 -22.9538 -20.6813 -18.5183 -16.4644
   -16.4269 -15.7992 -14.9846 -14.7878 -14.0494 -13.5978 -12.2742 -11.8002
   -11.6724 -11.0053 -10.7298 -10.5010 -10.0686  -9.8036  -3.0304  -1.0392
     0.1501   1.1462

     occupation numbers 
     1.0000   1.0000   1.0000   1.0000   1.0000   1.0000   1.0000   1.0000
     1.0000   1.0000   1.0000   1.0000   1.0000   1.0000   1.0000   1.0000
     1.0000   1.0000   1.0000   1.0000   1.0000   1.0000   0.0000   0.0000
     0.0000   0.0000

          k = 0.2857 0.1792 0.0000 (236240 PWs)   bands (ev):

   -32.9134 -32.7436 -32.1602 -32.0588 -22.7927 -21.0448 -18.3123 -16.7162
   -16.3442 -15.8377 -14.8381 -14.8239 -13.9170 -13.7181 -12.1789 -11.7411
   -11.6344 -10.9076 -10.6715 -10.6238 -10.0293  -9.8556  -2.8106  -0.8380
    -0.1042   1.1316

     occupation numbers 
     1.0000   1.0000   1.0000   1.0000   1.0000   1.0000   1.0000   1.0000
     1.0000   1.0000   1.0000   1.0000   1.0000   1.0000   1.0000   1.0000
     1.0000   1.0000   1.0000   1.0000   1.0000   1.0000   0.0000   0.0000
     0.0000   0.0000

          k = 0.2857 0.2240 0.0000 (236170 PWs)   bands (ev):

   -32.8529 -32.7219 -32.1960 -32.1126 -22.5885 -21.4043 -18.0937 -17.0181
   -16.2244 -15.8839 -14.8397 -14.7590 -13.8168 -13.7699 -12.0542 -11.6563
   -11.6185 -11.0230 -10.6689 -10.5630  -9.9853  -9.8981  -2.5236  -0.9436
    -0.1237   0.7240

     occupation numbers 
     1.0000   1.0000   1.0000   1.0000   1.0000   1.0000   1.0000   1.0000
     1.0000   1.0000   1.0000   1.0000   1.0000   1.0000   1.0000   1.0000
     1.0000   1.0000   1.0000   1.0000   1.0000   1.0000   0.0000   0.0000
     0.0000   0.0000

          k = 0.2857 0.2688 0.0000 (236220 PWs)   bands (ev):

   -32.7933 -32.7198 -32.2123 -32.1633 -22.3436 -21.7461 -17.8561 -17.3151
   -16.1136 -15.9422 -14.8310 -14.7603 -13.7605 -13.7576 -11.9084 -11.6592
   -11.5390 -11.2117 -10.6199 -10.5541  -9.9460  -9.9150  -2.1721  -1.3328
     0.0795   0.5037

     occupation numbers 
     1.0000   1.0000   1.0000   1.0000   1.0000   1.0000   1.0000   1.0000
     1.0000   1.0000   1.0000   1.0000   1.0000   1.0000   1.0000   1.0000
     1.0000   1.0000   1.0000   1.0000   1.0000   1.0000   0.0000   0.0000
     0.0000   0.0000

          k = 0.2857-0.3136 0.0000 (236252 PWs)   bands (ev):

   -32.7450 -32.7450 -32.2002 -32.2002 -22.0613 -22.0613 -17.5963 -17.5963
   -16.0183 -16.0183 -14.7986 -14.7986 -13.7428 -13.7428 -11.7649 -11.7649
   -11.3883 -11.3883 -10.5802 -10.5802  -9.9234  -9.9234  -1.7666  -1.7666
     0.2954   0.2954

     occupation numbers 
     1.0000   1.0000   1.0000   1.0000   1.0000   1.0000   1.0000   1.0000
     1.0000   1.0000   1.0000   1.0000   1.0000   1.0000   1.0000   1.0000
     1.0000   1.0000   1.0000   1.0000   1.0000   1.0000   0.0000   0.0000
     0.0000   0.0000

          k = 0.3571 0.0000 0.0000 (236209 PWs)   bands (ev):

   -32.8188 -32.6255 -32.1173 -32.0019 -22.6090 -19.5364 -19.4153 -16.8661
   -16.5857 -15.6133 -15.1411 -14.7895 -14.7607 -13.5520 -12.4365 -11.8430
   -11.7950 -11.7476 -11.3203 -10.4814 -10.2289 -10.0189  -2.7936  -1.2063
    -0.0584   1.6754

     occupation numbers 
     1.0000   1.0000   1.0000   1.0000   1.0000   1.0000   1.0000   1.0000
     1.0000   1.0000   1.0000   1.0000   1.0000   1.0000   1.0000   1.0000
     1.0000   1.0000   1.0000   1.0000   1.0000   1.0000   0.0000   0.0000
     0.0000   0.0000

          k = 0.3571 0.0448 0.0000 (236178 PWs)   bands (ev):

   -32.8120 -32.6210 -32.1227 -32.0077 -22.5866 -19.6771 -19.3341 -16.8155
   -16.6683 -15.6196 -15.1183 -14.9239 -14.5794 -13.5942 -12.3927 -11.8921
   -11.7837 -11.7057 -11.2508 -10.5479 -10.2136  -9.9891  -2.7701  -1.1726
    -0.0683   1.4293

     occupation numbers 
     1.0000   1.0000   1.0000   1.0000   1.0000   1.0000   1.0000   1.0000
     1.0000   1.0000   1.0000   1.0000   1.0000   1.0000   1.0000   1.0000
     1.0000   1.0000   1.0000   1.0000   1.0000   1.0000   0.0000   0.0000
     0.0000   0.0000

          k = 0.3571 0.0896 0.0000 (236211 PWs)   bands (ev):

   -32.7920 -32.6084 -32.1378 -32.0245 -22.5195 -19.9335 -19.2324 -16.8822
   -16.6879 -15.6536 -15.0599 -15.0127 -14.3633 -13.6877 -12.2854 -11.9821
   -11.7610 -11.5842 -11.1020 -10.6926 -10.1715  -9.9461  -2.6978  -1.0756
    -0.1023   1.1087

     occupation numbers 
     1.0000   1.0000   1.0000   1.0000   1.0000   1.0000   1.0000   1.0000
     1.0000   1.0000   1.0000   1.0000   1.0000   1.0000   1.0000   1.0000
     1.0000   1.0000   1.0000   1.0000   1.0000   1.0000   0.0000   0.0000
     0.0000   0.0000

          k = 0.3571 0.1344 0.0000 (236173 PWs)   bands (ev):

   -32.7604 -32.5901 -32.1602 -32.0511 -22.4083 -20.2463 -19.1192 -17.1681
   -16.5304 -15.7208 -15.0565 -14.9969 -14.1526 -13.7688 -12.1705 -12.0306
   -11.7465 -11.4089 -10.9449 -10.8438 -10.1131  -9.9357  -2.5716  -0.9348
    -0.1681   0.7980

     occupation numbers 
     1.0000   1.0000   1.0000   1.0000   1.0000   1.0000   1.0000   1.0000
     1.0000   1.0000   1.0000   1.0000   1.0000   1.0000   1.0000   1.0000
     1.0000   1.0000   1.0000   1.0000   1.0000   1.0000   0.0000   0.0000
     0.0000   0.0000

          k = 0.3571 0.1792 0.0000 (236140 PWs)   bands (ev):

   -32.7197 -32.5712 -32.1848 -32.0852 -22.2540 -20.5846 -18.9809 -17.4820
   -16.3778 -15.8020 -15.0792 -14.9697 -13.9690 -13.7909 -12.1532 -11.9242
   -11.7685 -11.2185 -10.9567 -10.8178 -10.0535  -9.9608  -2.3857  -0.8147
    -0.2474   0.5266

     occupation numbers 
     1.0000   1.0000   1.0000   1.0000   1.0000   1.0000   1.0000   1.0000
     1.0000   1.0000   1.0000   1.0000   1.0000   1.0000   1.0000   1.0000
     1.0000   1.0000   1.0000   1.0000   1.0000   1.0000   0.0000   0.0000
     0.0000   0.0000

          k = 0.3571 0.2240 0.0000 (236129 PWs)   bands (ev):

   -32.6735 -32.5594 -32.2036 -32.1236 -22.0584 -20.9249 -18.8108 -17.7963
   -16.2447 -15.8825 -15.0920 -14.9908 -13.8271 -13.7572 -12.1506 -11.8410
   -11.7401 -11.0964 -10.9846 -10.7427 -10.0095  -9.9962  -2.1367  -0.8711
    -0.2380   0.3051

     occupation numbers 
     1.0000   1.0000   1.0000   1.0000   1.0000   1.0000   1.0000   1.0000
     1.0000   1.0000   1.0000   1.0000   1.0000   1.0000   1.0000   1.0000
     1.0000   1.0000   1.0000   1.0000   1.0000   1.0000   0.0000   0.0000
     0.0000   0.0000

          k = 0.3571 0.2688 0.0000 (236122 PWs)   bands (ev):

   -32.6271 -32.5636 -32.2073 -32.1613 -21.8237 -21.2511 -18.6059 -18.0945
   -16.1334 -15.9600 -15.0922 -15.0352 -13.7360 -13.7127 -12.1131 -11.9425
   -11.5337 -11.1743 -10.8690 -10.7286 -10.0101  -9.9925  -1.8291  -1.1357
    -0.1292   0.1326

     occupation numbers 
     1.0000   1.0000   1.0000   1.0000   1.0000   1.0000   1.0000   1.0000
     1.0000   1.0000   1.0000   1.0000   1.0000   1.0000   1.0000   1.0000
     1.0000   1.0000   1.0000   1.0000   1.0000   1.0000   0.0000   0.0000
     0.0000   0.0000

          k = 0.3571-0.3136 0.0000 (236126 PWs)   bands (ev):

   -32.5877 -32.5877 -32.1919 -32.1919 -21.5530 -21.5530 -18.3663 -18.3663
   -16.0408 -16.0408 -15.0735 -15.0735 -13.6991 -13.6991 -12.0404 -12.0404
   -11.3329 -11.3329 -10.7737 -10.7737 -10.0000 -10.0000  -1.4817  -1.4817
    -0.0048  -0.0048

     occupation numbers 
     1.0000   1.0000   1.0000   1.0000   1.0000   1.0000   1.0000   1.0000
     1.0000   1.0000   1.0000   1.0000   1.0000   1.0000   1.0000   1.0000
     1.0000   1.0000   1.0000   1.0000   1.0000   1.0000   0.0000   0.0000
     0.0000   0.0000

          k = 0.4286 0.0000 0.0000 (236199 PWs)   bands (ev):

   -32.5946 -32.4283 -32.2314 -32.1058 -21.9425 -20.3444 -18.8026 -17.3573
   -16.6717 -15.8786 -15.0181 -14.8576 -14.6380 -13.8930 -12.5227 -12.1887
   -11.7293 -11.5541 -11.5459 -10.8526 -10.2964 -10.2059  -2.2236  -0.8406
    -0.7355   0.7123

     occupation numbers 
     1.0000   1.0000   1.0000   1.0000   1.0000   1.0000   1.0000   1.0000
     1.0000   1.0000   1.0000   1.0000   1.0000   1.0000   1.0000   1.0000
     1.0000   1.0000   1.0000   1.0000   1.0000   1.0000   0.0000   0.0000
     0.0000   0.0000

          k = 0.4286 0.0448 0.0000 (236217 PWs)   bands (ev):

   -32.5905 -32.4263 -32.2331 -32.1086 -21.9215 -20.3334 -18.8845 -17.4481
   -16.6136 -15.8472 -15.0188 -14.9614 -14.5159 -13.9082 -12.4697 -12.1391
   -11.7398 -11.7393 -11.3629 -10.8909 -10.2733 -10.1697  -2.2047  -0.8342
    -0.7290   0.6318

     occupation numbers 
     1.0000   1.0000   1.0000   1.0000   1.0000   1.0000   1.0000   1.0000
     1.0000   1.0000   1.0000   1.0000   1.0000   1.0000   1.0000   1.0000
     1.0000   1.0000   1.0000   1.0000   1.0000   1.0000   0.0000   0.0000
     0.0000   0.0000

          k = 0.4286 0.0896 0.0000 (236153 PWs)   bands (ev):

   -32.5784 -32.4207 -32.2377 -32.1168 -21.8588 -20.3051 -19.0894 -17.6797
   -16.4754 -15.7903 -15.1034 -15.0305 -14.3171 -13.9259 -12.3310 -11.9998
   -11.9151 -11.7785 -11.1907 -10.9611 -10.2122 -10.0986  -2.1460  -0.8130
    -0.7097   0.4456

     occupation numbers 
     1.0000   1.0000   1.0000   1.0000   1.0000   1.0000   1.0000   1.0000
     1.0000   1.0000   1.0000   1.0000   1.0000   1.0000   1.0000   1.0000
     1.0000   1.0000   1.0000   1.0000   1.0000   1.0000   0.0000   0.0000
     0.0000   0.0000

          k = 0.4286 0.1344 0.0000 (236087 PWs)   bands (ev):

   -32.5592 -32.4139 -32.2435 -32.1301 -21.7550 -20.2800 -19.3314 -17.9830
   -16.3198 -15.7646 -15.2102 -15.0704 -14.1140 -13.9014 -12.1555 -12.0489
   -11.8692 -11.7832 -11.0434 -11.0028 -10.1344 -10.0441  -2.0429  -0.8068
    -0.6466   0.2376

     occupation numbers 
     1.0000   1.0000   1.0000   1.0000   1.0000   1.0000   1.0000   1.0000
     1.0000   1.0000   1.0000   1.0000   1.0000   1.0000   1.0000   1.0000
     1.0000   1.0000   1.0000   1.0000   1.0000   1.0000   0.0000   0.0000
     0.0000   0.0000

          k = 0.4286 0.1792 0.0000 (236033 PWs)   bands (ev):

   -32.5345 -32.4097 -32.2470 -32.1478 -21.6113 -20.3143 -19.5052 -18.3092
   -16.1854 -15.7880 -15.2710 -15.1376 -13.9312 -13.8283 -12.1939 -11.9771
   -11.9022 -11.5483 -11.0078 -10.9310 -10.0660 -10.0261  -1.8916  -0.8493
    -0.5151   0.0572

     occupation numbers 
     1.0000   1.0000   1.0000   1.0000   1.0000   1.0000   1.0000   1.0000
     1.0000   1.0000   1.0000   1.0000   1.0000   1.0000   1.0000   1.0000
     1.0000   1.0000   1.0000   1.0000   1.0000   1.0000   0.0000   0.0000
     0.0000   0.0000

          k = 0.4286 0.2240 0.0000 (236051 PWs)   bands (ev):

   -32.5061 -32.4131 -32.2440 -32.1688 -21.4296 -20.4707 -19.5184 -18.6296
   -16.0831 -15.8399 -15.2991 -15.2104 -13.7875 -13.7403 -12.2622 -12.0961
   -11.6664 -11.3109 -11.0121 -10.8669 -10.0351 -10.0267  -1.6953  -0.9360
    -0.3550  -0.0712

     occupation numbers 
     1.0000   1.0000   1.0000   1.0000   1.0000   1.0000   1.0000   1.0000
     1.0000   1.0000   1.0000   1.0000   1.0000   1.0000   1.0000   1.0000
     1.0000   1.0000   1.0000   1.0000   1.0000   1.0000   0.0000   0.0000
     0.0000   0.0000

          k = 0.4286 0.2688 0.0000 (236043 PWs)   bands (ev):

   -32.4767 -32.4267 -32.2323 -32.1915 -21.2136 -20.7113 -19.3926 -18.9262
   -16.0085 -15.8964 -15.3081 -15.2674 -13.6943 -13.6755 -12.2859 -12.1967
   -11.4315 -11.1397 -11.0354 -10.8655 -10.0440 -10.0210  -1.4713  -1.0688
    -0.2303  -0.1416

     occupation numbers 
     1.0000   1.0000   1.0000   1.0000   1.0000   1.0000   1.0000   1.0000
     1.0000   1.0000   1.0000   1.0000   1.0000   1.0000   1.0000   1.0000
     1.0000   1.0000   1.0000   1.0000   1.0000   1.0000   0.0000   0.0000
     0.0000   0.0000

          k = 0.4286-0.3136 0.0000 (236052 PWs)   bands (ev):

   -32.4491 -32.4491 -32.2137 -32.2137 -20.9696 -20.9696 -19.1855 -19.1855
   -15.9504 -15.9504 -15.2993 -15.2993 -13.6572 -13.6572 -12.2629 -12.2629
   -11.2311 -11.2311 -10.9350 -10.9350 -10.0351 -10.0351  -1.2515  -1.2515
    -0.1749  -0.1749

     occupation numbers 
     1.0000   1.0000   1.0000   1.0000   1.0000   1.0000   1.0000   1.0000
     1.0000   1.0000   1.0000   1.0000   1.0000   1.0000   1.0000   1.0000
     1.0000   1.0000   1.0000   1.0000   1.0000   1.0000   0.0000   0.0000
     0.0000   0.0000

          k =-0.5000 0.0000 0.0000 (236166 PWs)   bands (ev):

   -32.3932 -32.3932 -32.2503 -32.2503 -21.1770 -21.1770 -18.1102 -18.1102
   -16.3029 -16.3029 -14.9298 -14.9298 -14.2737 -14.2737 -12.4451 -12.4451
   -11.6705 -11.6705 -11.2106 -11.2106 -10.2992 -10.2992  -1.5752  -1.5752
    -0.0876  -0.0876

     occupation numbers 
     1.0000   1.0000   1.0000   1.0000   1.0000   1.0000   1.0000   1.0000
     1.0000   1.0000   1.0000   1.0000   1.0000   1.0000   1.0000   1.0000
     1.0000   1.0000   1.0000   1.0000   1.0000   1.0000   0.0000   0.0000
     0.0000   0.0000

          k =-0.5000 0.0448 0.0000 (236154 PWs)   bands (ev):

   -32.3924 -32.3924 -32.2499 -32.2499 -21.1584 -21.1584 -18.2021 -18.2021
   -16.2511 -16.2511 -14.9658 -14.9658 -14.2397 -14.2397 -12.3934 -12.3934
   -11.7201 -11.7201 -11.1870 -11.1870 -10.2678 -10.2678  -1.5607  -1.5607
    -0.1174  -0.1174

     occupation numbers 
     1.0000   1.0000   1.0000   1.0000   1.0000   1.0000   1.0000   1.0000
     1.0000   1.0000   1.0000   1.0000   1.0000   1.0000   1.0000   1.0000
     1.0000   1.0000   1.0000   1.0000   1.0000   1.0000   0.0000   0.0000
     0.0000   0.0000

          k =-0.5000 0.0896 0.0000 (236162 PWs)   bands (ev):

   -32.3903 -32.3903 -32.2489 -32.2489 -21.1034 -21.1034 -18.4364 -18.4364
   -16.1359 -16.1359 -15.0569 -15.0569 -14.1460 -14.1460 -12.2530 -12.2530
   -11.8364 -11.8364 -11.1302 -11.1302 -10.1930 -10.1930  -1.5159  -1.5159
    -0.1905  -0.1905

     occupation numbers 
     1.0000   1.0000   1.0000   1.0000   1.0000   1.0000   1.0000   1.0000
     1.0000   1.0000   1.0000   1.0000   1.0000   1.0000   1.0000   1.0000
     1.0000   1.0000   1.0000   1.0000   1.0000   1.0000   0.0000   0.0000
     0.0000   0.0000

          k =-0.5000 0.1344 0.0000 (236074 PWs)   bands (ev):

   -32.3873 -32.3873 -32.2473 -32.2473 -21.0134 -21.0134 -18.7405 -18.7405
   -16.0219 -16.0219 -15.1690 -15.1690 -14.0137 -14.0137 -12.0918 -12.0918
   -11.9324 -11.9324 -11.0593 -11.0593 -10.1137 -10.1137  -1.4401  -1.4401
    -0.2715  -0.2715

     occupation numbers 
     1.0000   1.0000   1.0000   1.0000   1.0000   1.0000   1.0000   1.0000
     1.0000   1.0000   1.0000   1.0000   1.0000   1.0000   1.0000   1.0000
     1.0000   1.0000   1.0000   1.0000   1.0000   1.0000   0.0000   0.0000
     0.0000   0.0000

          k =-0.5000 0.1792 0.0000 (236048 PWs)   bands (ev):

   -32.3839 -32.3839 -32.2456 -32.2456 -20.8926 -20.8926 -19.0607 -19.0607
   -15.9437 -15.9437 -15.2712 -15.2712 -13.8715 -13.8715 -12.1530 -12.1530
   -11.7613 -11.7613 -10.9929 -10.9929 -10.0594 -10.0594  -1.3415  -1.3415
    -0.3232  -0.3232

     occupation numbers 
     1.0000   1.0000   1.0000   1.0000   1.0000   1.0000   1.0000   1.0000
     1.0000   1.0000   1.0000   1.0000   1.0000   1.0000   1.0000   1.0000
     1.0000   1.0000   1.0000   1.0000   1.0000   1.0000   0.0000   0.0000
     0.0000   0.0000

          k =-0.5000 0.2240 0.0000 (236044 PWs)   bands (ev):

   -32.3808 -32.3808 -32.2441 -32.2441 -20.7510 -20.7510 -19.3591 -19.3591
   -15.9058 -15.9058 -15.3445 -15.3445 -13.7492 -13.7492 -12.2549 -12.2549
   -11.5129 -11.5129 -10.9565 -10.9565 -10.0390 -10.0390  -1.2456  -1.2456
    -0.3162  -0.3162

     occupation numbers 
     1.0000   1.0000   1.0000   1.0000   1.0000   1.0000   1.0000   1.0000
     1.0000   1.0000   1.0000   1.0000   1.0000   1.0000   1.0000   1.0000
     1.0000   1.0000   1.0000   1.0000   1.0000   1.0000   0.0000   0.0000
     0.0000   0.0000

          k =-0.5000 0.2688 0.0000 (236000 PWs)   bands (ev):

   -32.3787 -32.3787 -32.2430 -32.2430 -20.6155 -20.6155 -19.5936 -19.5936
   -15.8950 -15.8950 -15.3847 -15.3847 -13.6684 -13.6684 -12.3226 -12.3226
   -11.2809 -11.2809 -10.9793 -10.9793 -10.0410 -10.0410  -1.1829  -1.1829
    -0.2570  -0.2570

     occupation numbers 
     1.0000   1.0000   1.0000   1.0000   1.0000   1.0000   1.0000   1.0000
     1.0000   1.0000   1.0000   1.0000   1.0000   1.0000   1.0000   1.0000
     1.0000   1.0000   1.0000   1.0000   1.0000   1.0000   0.0000   0.0000
     0.0000   0.0000

          k =-0.5000-0.3136 0.0000 (236036 PWs)   bands (ev):

   -32.3780 -32.3780 -32.2426 -32.2426 -20.5517 -20.5517 -19.6912 -19.6912
   -15.8940 -15.8940 -15.3969 -15.3969 -13.6404 -13.6404 -12.3460 -12.3460
   -11.1318 -11.1318 -11.0515 -11.0515 -10.0451 -10.0451  -1.1630  -1.1630
    -0.2181  -0.2181

     occupation numbers 
     1.0000   1.0000   1.0000   1.0000   1.0000   1.0000   1.0000   1.0000
     1.0000   1.0000   1.0000   1.0000   1.0000   1.0000   1.0000   1.0000
     1.0000   1.0000   1.0000   1.0000   1.0000   1.0000   0.0000   0.0000
     0.0000   0.0000

     the Fermi energy is    -7.0612 ev

!    total energy              =    -240.24737168 Ry
     estimated scf accuracy    <          8.0E-12 Ry
     smearing contrib. (-TS)   =       0.00000000 Ry
     internal energy E=F+TS    =    -240.24737168 Ry

     The total energy is F=E-TS. E is the sum of the following terms:
     one-electron contribution =   -2323.12297487 Ry
     hartree contribution      =    1166.66470646 Ry
     xc contribution           =     -51.69335577 Ry
     ewald contribution        =     967.90425250 Ry

     convergence has been achieved in  10 iterations

     Writing all to output data dir ../tmp/fgz.save/

     init_run     :     49.29s CPU     69.39s WALL (       1 calls)
     electrons    :   1252.56s CPU   2067.61s WALL (       1 calls)

     Called by init_run:
     wfcinit      :     43.03s CPU     62.35s WALL (       1 calls)
     wfcinit:atom :      0.19s CPU      0.63s WALL (      11 calls)
     wfcinit:wfcr :     41.13s CPU     58.77s WALL (      11 calls)
     potinit      :      2.62s CPU      2.76s WALL (       1 calls)
     hinit0       :      2.46s CPU      2.52s WALL (       1 calls)

     Called by electrons:
     c_bands      :   1072.69s CPU   1792.74s WALL (      11 calls)
     sum_band     :    159.31s CPU    245.02s WALL (      11 calls)
     v_of_rho     :      6.77s CPU      7.29s WALL (      11 calls)
     v_h          :      0.39s CPU      0.44s WALL (      11 calls)
     v_xc         :      6.38s CPU      6.85s WALL (      11 calls)
     newd         :     12.38s CPU     21.05s WALL (      11 calls)
     mix_rho      :      1.30s CPU      1.55s WALL (      11 calls)

     Called by c_bands:
     init_us_2    :      4.52s CPU      6.23s WALL (     253 calls)
     init_us_2:cp :      4.52s CPU      6.23s WALL (     253 calls)
     cegterg      :    873.69s CPU   1442.26s WALL (     121 calls)

     Called by sum_band:
     sum_band:wei :      0.16s CPU      0.16s WALL (      11 calls)
     sum_band:loo :    135.37s CPU    207.11s WALL (      11 calls)
     sum_band:buf :      0.77s CPU      1.52s WALL (     121 calls)
     sum_band:ini :      2.13s CPU      3.06s WALL (     121 calls)
     sum_band:cal :     40.68s CPU     57.27s WALL (     121 calls)
     sum_band:bec :      0.00s CPU      0.00s WALL (     121 calls)
     addusdens    :      3.19s CPU      7.19s WALL (      11 calls)
     addusd:skk   :      0.02s CPU      0.03s WALL (      22 calls)
     addusd:dgemm :      1.25s CPU      3.02s WALL (      22 calls)
     addusd:qvan2 :      1.01s CPU      2.83s WALL (      22 calls)

     Called by *egterg:
     cdiaghg      :     40.12s CPU     80.51s WALL (     483 calls)
     cegterg:over :    119.91s CPU    198.06s WALL (     373 calls)
     cegterg:upda :     20.06s CPU     32.32s WALL (     373 calls)
     cegterg:last :     33.55s CPU     35.70s WALL (     261 calls)
     h_psi        :    573.74s CPU    916.65s WALL (     505 calls)
     s_psi        :     27.98s CPU     36.94s WALL (     505 calls)
     g_psi        :      1.96s CPU      2.89s WALL (     373 calls)

     Called by h_psi:
     h_psi:calbec :    130.13s CPU    216.88s WALL (     505 calls)
     vloc_psi     :    408.99s CPU    646.25s WALL (     505 calls)
     add_vuspsi   :     32.82s CPU     49.63s WALL (     505 calls)

     General routines
     calbec       :    170.81s CPU    274.14s WALL (     626 calls)
     fft          :      4.91s CPU      5.38s WALL (     122 calls)
     ffts         :      0.79s CPU      0.83s WALL (      11 calls)
     fftw         :    435.82s CPU    704.86s WALL (   20890 calls)

     Parallel routines

     PWSCF        :  21m42.49s CPU  35m45.33s WALL


   This run was terminated on:   6:28:19   5Mar2024            

=------------------------------------------------------------------------------=
   JOB DONE.
=------------------------------------------------------------------------------=
