
     Program PHONON v.7.1 starts on  2Mar2024 at 17:20:38 

     This program is part of the open-source Quantum ESPRESSO suite
     for quantum simulation of materials; please cite
         "P. Giannozzi et al., J. Phys.:Condens. Matter 21 395502 (2009);
         "P. Giannozzi et al., J. Phys.:Condens. Matter 29 465901 (2017);
         "P. Giannozzi et al., J. Chem. Phys. 152 154105 (2020);
          URL http://www.quantum-espresso.org", 
     in publications or presentations arising from this work. More details at
     http://www.quantum-espresso.org/quote

     Parallel version (MPI), running on     8 processors

     MPI processes distributed on     1 nodes
     R & G space division:  proc/nbgrp/npool/nimage =       8
     348376 MiB available memory on the printing compute node when the environment starts

     Reading input from input.12.5
      Title line not specified: using 'default'.

     Reading xml data from directory:

     /home/ext_chineason_graduate_utm_my/fgc/tmp/12.5/fgc.save/

     IMPORTANT: XC functional enforced from input :
     Exchange-correlation= PBE
                           (   1   4   3   4   0   0   0)
     Any further DFT definition will be discarded
     Please, verify this is what you really want


     Parallelization info
     --------------------
     sticks:   dense  smooth     PW     G-vecs:    dense   smooth      PW
     Min         416     416    114               138498   138498   19368
     Max         417     417    115               138521   138521   19383
     Sum        3331    3331    913              1108055  1108055  154987

     Using Slab Decomposition

 ----2D----2D----2D----2D----2D----2D----2D----2D----2D----2D----2D----2D
  The code is running with the 2D cutoff
  Please refer to:
  Sohier, T., Calandra, M., & Mauri, F. (2017), 
  Density functional perturbation theory for gated two-dimensional heterostructures:
  Theoretical developments and application to flexural phonons in graphene.
  Physical Review B, 96(7), 75448. https://doi.org/10.1103/PhysRevB.96.075448
 ----2D----2D----2D----2D----2D----2D----2D----2D----2D----2D----2D----2D

     negative rho (up, down):  5.457E-06 0.000E+00
     Reading collected, re-writing distributed wavefunctions
        1 /  12 q-points for this run, from 12 to 12:
       N       xq(1)         xq(2)         xq(3) 
       1   0.000000000   0.000000000   0.000000000
       2   0.000000000   0.128300060   0.000000000
       3   0.000000000   0.256600120   0.000000000
       4   0.000000000   0.384900179   0.000000000
       5   0.000000000   0.513200239   0.000000000
       6   0.111111111   0.192450090   0.000000000
       7   0.111111111   0.320750150   0.000000000
       8   0.111111111   0.449050209   0.000000000
       9   0.111111111   0.577350269   0.000000000
      10   0.222222222   0.384900179   0.000000000
      11   0.222222222   0.513200239   0.000000000
      12   0.333333333   0.577350269   0.000000000


     Calculation of q =    0.3333333   0.5773503   0.0000000
     Subspace diagonalization in iterative solution of the eigenvalue problem:
     a serial algorithm will be used


     Parallelization info
     --------------------
     sticks:   dense  smooth     PW     G-vecs:    dense   smooth      PW
     Min         416     416    119               138498   138498   21535
     Max         417     417    120               138521   138521   21580
     Sum        3331    3331    955              1108055  1108055  172425

     Using Slab Decomposition


     Title: 
     default                                                                    


     bravais-lattice index     =            4
     lattice parameter (alat)  =       4.9233  a.u.
     unit-cell volume          =     733.8532 (a.u.)^3
     number of atoms/cell      =            4
     number of atomic types    =            2
     number of electrons       =        22.00
     number of Kohn-Sham states=           15
     kinetic-energy cutoff     =     500.0000  Ry
     charge density cutoff     =    2000.0000  Ry
     Exchange-correlation= PBE
                           (   1   4   3   4   0   0   0)

     celldm(1)=   4.923251  celldm(2)=   0.000000  celldm(3)=   7.101051
     celldm(4)=   0.000000  celldm(5)=   0.000000  celldm(6)=   0.000000

     crystal axes: (cart. coord. in units of alat)
               a(1) = (   1.000000   0.000000   0.000000 )  
               a(2) = (  -0.500000   0.866025   0.000000 )  
               a(3) = (   0.000000   0.000000   7.101051 )  

     reciprocal axes: (cart. coord. in units 2 pi/alat)
               b(1) = (  1.000000  0.577350 -0.000000 )  
               b(2) = (  0.000000  1.154701  0.000000 )  
               b(3) = (  0.000000 -0.000000  0.140824 )  


     PseudoPot. # 1 for C  read from file:
     ../pseudo/c_pbe_v1.2.uspp.F.UPF
     MD5 check sum: d1aef80898a10debaa0f26306b886e00
     Pseudo is Ultrasoft + core correction, Zval =  4.0
     Generated by new atomic code, or converted to UPF format
     Using radial grid of  721 points,  4 beta functions with: 
                l(1) =   0
                l(2) =   0
                l(3) =   1
                l(4) =   1
     Q(r) pseudized with  8 coefficients,  rinner =    1.100   1.100   1.100


     PseudoPot. # 2 for F  read from file:
     ../pseudo/f_pbe_v1.4.uspp.F.UPF
     MD5 check sum: 4c38b6a325caf53ec0e86aed9459de46
     Pseudo is Ultrasoft, Zval =  7.0
     Generated by new atomic code, or converted to UPF format
     Using radial grid of  799 points,  4 beta functions with: 
                l(1) =   0
                l(2) =   0
                l(3) =   1
                l(4) =   1
     Q(r) pseudized with  8 coefficients,  rinner =    0.950   0.950   0.950


     atomic species   valence    mass     pseudopotential
        C              4.00    12.01070     C ( 1.00)
        F              7.00    18.99840     F ( 1.00)

     12 Sym. Ops., with inversion, found


                                    s                        frac. trans.

      isym =  1     identity                                     

 cryst.   s( 1) = (     1          0          0      )
                  (     0          1          0      )
                  (     0          0          1      )

 cart.    s( 1) = (  1.0000000  0.0000000  0.0000000 )
                  (  0.0000000  1.0000000  0.0000000 )
                  (  0.0000000  0.0000000  1.0000000 )


      isym =  2     180 deg rotation - cart. axis [1,0,0]        

 cryst.   s( 2) = (     1          0          0      )
                  (    -1         -1          0      )
                  (     0          0         -1      )

 cart.    s( 2) = (  1.0000000  0.0000000  0.0000000 )
                  (  0.0000000 -1.0000000  0.0000000 )
                  (  0.0000000  0.0000000 -1.0000000 )


      isym =  3     120 deg rotation - cryst. axis [0,0,1]       

 cryst.   s( 3) = (     0          1          0      )    f =( -0.5000000 )
                  (    -1         -1          0      )       ( -0.5000000 )
                  (     0          0          1      )       (  0.0000000 )

 cart.    s( 3) = ( -0.5000000 -0.8660254  0.0000000 )    f =( -0.2500000 )
                  (  0.8660254 -0.5000000  0.0000000 )       ( -0.4330127 )
                  (  0.0000000  0.0000000  1.0000000 )       (  0.0000000 )


      isym =  4     120 deg rotation - cryst. axis [0,0,-1]      

 cryst.   s( 4) = (    -1         -1          0      )    f =(  0.0000000 )
                  (     1          0          0      )       ( -0.5000000 )
                  (     0          0          1      )       (  0.0000000 )

 cart.    s( 4) = ( -0.5000000  0.8660254  0.0000000 )    f =(  0.2500000 )
                  ( -0.8660254 -0.5000000  0.0000000 )       ( -0.4330127 )
                  (  0.0000000  0.0000000  1.0000000 )       (  0.0000000 )


      isym =  5     180 deg rotation - cryst. axis [0,1,0]       

 cryst.   s( 5) = (    -1         -1          0      )    f =(  0.0000000 )
                  (     0          1          0      )       ( -0.5000000 )
                  (     0          0         -1      )       (  0.0000000 )

 cart.    s( 5) = ( -0.5000000 -0.8660254  0.0000000 )    f =(  0.2500000 )
                  ( -0.8660254  0.5000000  0.0000000 )       ( -0.4330127 )
                  (  0.0000000  0.0000000 -1.0000000 )       (  0.0000000 )


      isym =  6     180 deg rotation - cryst. axis [1,1,0]       

 cryst.   s( 6) = (     0          1          0      )    f =(  0.5000000 )
                  (     1          0          0      )       (  0.5000000 )
                  (     0          0         -1      )       (  0.0000000 )

 cart.    s( 6) = ( -0.5000000  0.8660254  0.0000000 )    f =(  0.2500000 )
                  (  0.8660254  0.5000000  0.0000000 )       (  0.4330127 )
                  (  0.0000000  0.0000000 -1.0000000 )       (  0.0000000 )


      isym =  7     inversion                                    

 cryst.   s( 7) = (    -1          0          0      )
                  (     0         -1          0      )
                  (     0          0         -1      )

 cart.    s( 7) = ( -1.0000000  0.0000000  0.0000000 )
                  (  0.0000000 -1.0000000  0.0000000 )
                  (  0.0000000  0.0000000 -1.0000000 )


      isym =  8     inv. 180 deg rotation - cart. axis [1,0,0]   

 cryst.   s( 8) = (    -1          0          0      )
                  (     1          1          0      )
                  (     0          0          1      )

 cart.    s( 8) = ( -1.0000000 -0.0000000  0.0000000 )
                  (  0.0000000  1.0000000  0.0000000 )
                  (  0.0000000  0.0000000  1.0000000 )


      isym =  9     inv. 120 deg rotation - cryst. axis [0,0,1]  

 cryst.   s( 9) = (     0         -1          0      )    f =(  0.5000000 )
                  (     1          1          0      )       ( -0.5000000 )
                  (     0          0         -1      )       (  0.0000000 )

 cart.    s( 9) = (  0.5000000  0.8660254  0.0000000 )    f =(  0.7500000 )
                  ( -0.8660254  0.5000000  0.0000000 )       ( -0.4330127 )
                  (  0.0000000  0.0000000 -1.0000000 )       (  0.0000000 )


      isym = 10     inv. 120 deg rotation - cryst. axis [0,0,-1] 

 cryst.   s(10) = (     1          1          0      )    f =(  0.0000000 )
                  (    -1          0          0      )       (  0.5000000 )
                  (     0          0         -1      )       (  0.0000000 )

 cart.    s(10) = (  0.5000000 -0.8660254  0.0000000 )    f =( -0.2500000 )
                  (  0.8660254  0.5000000  0.0000000 )       (  0.4330127 )
                  (  0.0000000  0.0000000 -1.0000000 )       (  0.0000000 )


      isym = 11     inv. 180 deg rotation - cryst. axis [0,1,0]  

 cryst.   s(11) = (     1          1          0      )    f =(  0.0000000 )
                  (     0         -1          0      )       ( -0.5000000 )
                  (     0          0          1      )       (  0.0000000 )

 cart.    s(11) = (  0.5000000  0.8660254  0.0000000 )    f =(  0.2500000 )
                  (  0.8660254 -0.5000000  0.0000000 )       ( -0.4330127 )
                  (  0.0000000  0.0000000  1.0000000 )       (  0.0000000 )


      isym = 12     inv. 180 deg rotation - cryst. axis [1,1,0]  

 cryst.   s(12) = (     0         -1          0      )    f =( -0.5000000 )
                  (    -1          0          0      )       ( -0.5000000 )
                  (     0          0          1      )       (  0.0000000 )

 cart.    s(12) = (  0.5000000 -0.8660254  0.0000000 )    f =( -0.2500000 )
                  ( -0.8660254 -0.5000000  0.0000000 )       ( -0.4330127 )
                  (  0.0000000  0.0000000  1.0000000 )       (  0.0000000 )


     point group D_3d (-3m) 
     there are  6 classes
     the character table:

       E     2C3   3C2'  i     2S6   3s_d 
A_1g   1.00  1.00  1.00  1.00  1.00  1.00
A_2g   1.00  1.00 -1.00  1.00  1.00 -1.00
E_g    2.00 -1.00  0.00  2.00 -1.00  0.00
A_1u   1.00  1.00  1.00 -1.00 -1.00 -1.00
A_2u   1.00  1.00 -1.00 -1.00 -1.00  1.00
E_u    2.00 -1.00  0.00 -2.00  1.00  0.00

     the symmetry operations in each class and the name of the first element:

     E        1
          identity                                               
     2C3      3    4
          120 deg rotation - cryst. axis [0,0,1]                 
     3C2'     2    5    6
          180 deg rotation - cart. axis [1,0,0]                  
     i        7
          inversion                                              
     2S6      9   10
          inv. 120 deg rotation - cryst. axis [0,0,1]            
     3s_d     8   11   12
          inv. 180 deg rotation - cart. axis [1,0,0]             

   Cartesian axes

     site n.     atom                  positions (alat units)
         1           C   tau(   1) = (   0.5000000   0.5773503  -0.0938425  )
         2           C   tau(   2) = (  -0.0000000   0.2886751   0.0938425  )
         3           F   tau(   3) = (   0.5000000   0.5773503  -0.6234719  )
         4           F   tau(   4) = (  -0.0000000   0.2886751   0.6234719  )

   Crystallographic axes

     site n.     atom                  positions (cryst. coord.)
         1           C   tau(   1) = (  0.8333333  0.6666667 -0.0132153  )
         2           C   tau(   2) = (  0.1666667  0.3333333  0.0132153  )
         3           F   tau(   3) = (  0.8333333  0.6666667 -0.0877999  )
         4           F   tau(   4) = (  0.1666667  0.3333333  0.0877999  )

     number of k points=   128  Marzari-Vanderbilt smearing, width (Ry)=  0.0010
                       cart. coord. in units 2pi/alat
        k(    1) = (   0.0000000   0.0000000   0.0000000), wk =   0.0061728
        k(    2) = (   0.3333333   0.5773503   0.0000000), wk =   0.0000000
        k(    3) = (   0.0000000   0.0641500   0.0000000), wk =   0.0370370
        k(    4) = (   0.3333333   0.6415003   0.0000000), wk =   0.0000000
        k(    5) = (   0.0000000   0.1283001   0.0000000), wk =   0.0370370
        k(    6) = (   0.3333333   0.7056503   0.0000000), wk =   0.0000000
        k(    7) = (   0.0000000   0.1924501   0.0000000), wk =   0.0370370
        k(    8) = (   0.3333333   0.7698004   0.0000000), wk =   0.0000000
        k(    9) = (   0.0000000   0.2566001   0.0000000), wk =   0.0370370
        k(   10) = (   0.3333333   0.8339504   0.0000000), wk =   0.0000000
        k(   11) = (   0.0000000   0.3207501   0.0000000), wk =   0.0370370
        k(   12) = (   0.3333333   0.8981004   0.0000000), wk =   0.0000000
        k(   13) = (   0.0000000   0.3849002   0.0000000), wk =   0.0370370
        k(   14) = (   0.3333333   0.9622504   0.0000000), wk =   0.0000000
        k(   15) = (   0.0000000   0.4490502   0.0000000), wk =   0.0370370
        k(   16) = (   0.3333333   1.0264005   0.0000000), wk =   0.0000000
        k(   17) = (   0.0000000   0.5132002   0.0000000), wk =   0.0370370
        k(   18) = (   0.3333333   1.0905505   0.0000000), wk =   0.0000000
        k(   19) = (   0.0000000  -0.5773503   0.0000000), wk =   0.0185185
        k(   20) = (   0.3333333   0.0000000   0.0000000), wk =   0.0000000
        k(   21) = (   0.0555556   0.0962250   0.0000000), wk =   0.0185185
        k(   22) = (   0.3888889   0.6735753   0.0000000), wk =   0.0000000
        k(   23) = (   0.0555556   0.1603751   0.0000000), wk =   0.0370370
        k(   24) = (   0.3888889   0.7377253   0.0000000), wk =   0.0000000
        k(   25) = (   0.0555556   0.2245251   0.0000000), wk =   0.0370370
        k(   26) = (   0.3888889   0.8018754   0.0000000), wk =   0.0000000
        k(   27) = (   0.0555556   0.2886751   0.0000000), wk =   0.0370370
        k(   28) = (   0.3888889   0.8660254   0.0000000), wk =   0.0000000
        k(   29) = (   0.0555556   0.3528252   0.0000000), wk =   0.0370370
        k(   30) = (   0.3888889   0.9301754   0.0000000), wk =   0.0000000
        k(   31) = (   0.0555556   0.4169752   0.0000000), wk =   0.0370370
        k(   32) = (   0.3888889   0.9943255   0.0000000), wk =   0.0000000
        k(   33) = (   0.0555556   0.4811252   0.0000000), wk =   0.0370370
        k(   34) = (   0.3888889   1.0584755   0.0000000), wk =   0.0000000
        k(   35) = (   0.0555556   0.5452753   0.0000000), wk =   0.0370370
        k(   36) = (   0.3888889   1.1226255   0.0000000), wk =   0.0000000
        k(   37) = (   0.1111111   0.1924501   0.0000000), wk =   0.0185185
        k(   38) = (   0.4444444   0.7698004   0.0000000), wk =   0.0000000
        k(   39) = (   0.1111111   0.2566001   0.0000000), wk =   0.0370370
        k(   40) = (   0.4444444   0.8339504   0.0000000), wk =   0.0000000
        k(   41) = (   0.1111111   0.3207501   0.0000000), wk =   0.0370370
        k(   42) = (   0.4444444   0.8981004   0.0000000), wk =   0.0000000
        k(   43) = (   0.1111111   0.3849002   0.0000000), wk =   0.0370370
        k(   44) = (   0.4444444   0.9622504   0.0000000), wk =   0.0000000
        k(   45) = (   0.1111111   0.4490502   0.0000000), wk =   0.0370370
        k(   46) = (   0.4444444   1.0264005   0.0000000), wk =   0.0000000
        k(   47) = (   0.1111111   0.5132002   0.0000000), wk =   0.0370370
        k(   48) = (   0.4444444   1.0905505   0.0000000), wk =   0.0000000
        k(   49) = (   0.1111111   0.5773503   0.0000000), wk =   0.0185185
        k(   50) = (   0.4444444   1.1547005   0.0000000), wk =   0.0000000
        k(   51) = (   0.1666667   0.2886751   0.0000000), wk =   0.0185185
        k(   52) = (   0.5000000   0.8660254   0.0000000), wk =   0.0000000
        k(   53) = (   0.1666667   0.3528252   0.0000000), wk =   0.0370370
        k(   54) = (   0.5000000   0.9301754   0.0000000), wk =   0.0000000
        k(   55) = (   0.1666667   0.4169752   0.0000000), wk =   0.0370370
        k(   56) = (   0.5000000   0.9943255   0.0000000), wk =   0.0000000
        k(   57) = (   0.1666667   0.4811252   0.0000000), wk =   0.0370370
        k(   58) = (   0.5000000   1.0584755   0.0000000), wk =   0.0000000
        k(   59) = (   0.1666667   0.5452753   0.0000000), wk =   0.0370370
        k(   60) = (   0.5000000   1.1226255   0.0000000), wk =   0.0000000
        k(   61) = (   0.2222222   0.3849002   0.0000000), wk =   0.0185185
        k(   62) = (   0.5555556   0.9622504   0.0000000), wk =   0.0000000
        k(   63) = (   0.2222222   0.4490502   0.0000000), wk =   0.0370370
        k(   64) = (   0.5555556   1.0264005   0.0000000), wk =   0.0000000
        k(   65) = (   0.2222222   0.5132002   0.0000000), wk =   0.0370370
        k(   66) = (   0.5555556   1.0905505   0.0000000), wk =   0.0000000
        k(   67) = (   0.2222222   0.5773503   0.0000000), wk =   0.0185185
        k(   68) = (   0.5555556   1.1547005   0.0000000), wk =   0.0000000
        k(   69) = (   0.2777778   0.4811252   0.0000000), wk =   0.0185185
        k(   70) = (   0.6111111   1.0584755   0.0000000), wk =   0.0000000
        k(   71) = (   0.2777778   0.5452753   0.0000000), wk =   0.0370370
        k(   72) = (   0.6111111   1.1226255   0.0000000), wk =   0.0000000
        k(   73) = (   0.3333333   0.5773503   0.0000000), wk =   0.0061728
        k(   74) = (   0.6666667   1.1547005   0.0000000), wk =   0.0000000
        k(   75) = (  -0.0555556  -0.0962250   0.0000000), wk =   0.0185185
        k(   76) = (   0.2777778   0.4811252   0.0000000), wk =   0.0000000
        k(   77) = (  -0.0555556  -0.1603751   0.0000000), wk =   0.0370370
        k(   78) = (   0.2777778   0.4169752   0.0000000), wk =   0.0000000
        k(   79) = (  -0.0555556  -0.2245251   0.0000000), wk =   0.0370370
        k(   80) = (   0.2777778   0.3528252   0.0000000), wk =   0.0000000
        k(   81) = (  -0.0555556  -0.2886751   0.0000000), wk =   0.0370370
        k(   82) = (   0.2777778   0.2886751   0.0000000), wk =   0.0000000
        k(   83) = (  -0.0555556  -0.3528252   0.0000000), wk =   0.0370370
        k(   84) = (   0.2777778   0.2245251   0.0000000), wk =   0.0000000
        k(   85) = (  -0.0555556  -0.4169752   0.0000000), wk =   0.0370370
        k(   86) = (   0.2777778   0.1603751   0.0000000), wk =   0.0000000
        k(   87) = (  -0.0555556  -0.4811252   0.0000000), wk =   0.0370370
        k(   88) = (   0.2777778   0.0962250   0.0000000), wk =   0.0000000
        k(   89) = (  -0.0555556  -0.5452753   0.0000000), wk =   0.0370370
        k(   90) = (   0.2777778   0.0320750   0.0000000), wk =   0.0000000
        k(   91) = (  -0.1111111  -0.1924501   0.0000000), wk =   0.0185185
        k(   92) = (   0.2222222   0.3849002   0.0000000), wk =   0.0000000
        k(   93) = (  -0.1111111  -0.2566001   0.0000000), wk =   0.0370370
        k(   94) = (   0.2222222   0.3207501   0.0000000), wk =   0.0000000
        k(   95) = (  -0.1111111  -0.3207501   0.0000000), wk =   0.0370370
        k(   96) = (   0.2222222   0.2566001   0.0000000), wk =   0.0000000
        k(   97) = (  -0.1111111  -0.3849002   0.0000000), wk =   0.0370370
        k(   98) = (   0.2222222   0.1924501   0.0000000), wk =   0.0000000
        k(   99) = (  -0.1111111  -0.4490502   0.0000000), wk =   0.0370370
        k(  100) = (   0.2222222   0.1283001   0.0000000), wk =   0.0000000
        k(  101) = (  -0.1111111  -0.5132002   0.0000000), wk =   0.0370370
        k(  102) = (   0.2222222   0.0641500   0.0000000), wk =   0.0000000
        k(  103) = (  -0.1111111  -0.5773503   0.0000000), wk =   0.0185185
        k(  104) = (   0.2222222   0.0000000   0.0000000), wk =   0.0000000
        k(  105) = (  -0.1666667  -0.2886751   0.0000000), wk =   0.0185185
        k(  106) = (   0.1666667   0.2886751   0.0000000), wk =   0.0000000
        k(  107) = (  -0.1666667  -0.3528252   0.0000000), wk =   0.0370370
        k(  108) = (   0.1666667   0.2245251   0.0000000), wk =   0.0000000
        k(  109) = (  -0.1666667  -0.4169752   0.0000000), wk =   0.0370370
        k(  110) = (   0.1666667   0.1603751   0.0000000), wk =   0.0000000
        k(  111) = (  -0.1666667  -0.4811252   0.0000000), wk =   0.0370370
        k(  112) = (   0.1666667   0.0962250   0.0000000), wk =   0.0000000
        k(  113) = (  -0.1666667  -0.5452753   0.0000000), wk =   0.0370370
        k(  114) = (   0.1666667   0.0320750   0.0000000), wk =   0.0000000
        k(  115) = (  -0.2222222  -0.3849002   0.0000000), wk =   0.0185185
        k(  116) = (   0.1111111   0.1924501   0.0000000), wk =   0.0000000
        k(  117) = (  -0.2222222  -0.4490502   0.0000000), wk =   0.0370370
        k(  118) = (   0.1111111   0.1283001   0.0000000), wk =   0.0000000
        k(  119) = (  -0.2222222  -0.5132002   0.0000000), wk =   0.0370370
        k(  120) = (   0.1111111   0.0641500   0.0000000), wk =   0.0000000
        k(  121) = (  -0.2222222  -0.5773503   0.0000000), wk =   0.0185185
        k(  122) = (   0.1111111   0.0000000   0.0000000), wk =   0.0000000
        k(  123) = (  -0.2777778  -0.4811252   0.0000000), wk =   0.0185185
        k(  124) = (   0.0555556   0.0962250   0.0000000), wk =   0.0000000
        k(  125) = (  -0.2777778  -0.5452753   0.0000000), wk =   0.0370370
        k(  126) = (   0.0555556   0.0320750   0.0000000), wk =   0.0000000
        k(  127) = (  -0.3333333  -0.5773503   0.0000000), wk =   0.0061728
        k(  128) = (  -0.0000000   0.0000000   0.0000000), wk =   0.0000000

                       cryst. coord.
        k(    1) = (   0.0000000   0.0000000   0.0000000), wk =   0.0061728
        k(    2) = (   0.3333333   0.3333333   0.0000000), wk =   0.0000000
        k(    3) = (   0.0000000   0.0555556   0.0000000), wk =   0.0370370
        k(    4) = (   0.3333333   0.3888889   0.0000000), wk =   0.0000000
        k(    5) = (   0.0000000   0.1111111   0.0000000), wk =   0.0370370
        k(    6) = (   0.3333333   0.4444444   0.0000000), wk =   0.0000000
        k(    7) = (   0.0000000   0.1666667   0.0000000), wk =   0.0370370
        k(    8) = (   0.3333333   0.5000000   0.0000000), wk =   0.0000000
        k(    9) = (   0.0000000   0.2222222   0.0000000), wk =   0.0370370
        k(   10) = (   0.3333333   0.5555556   0.0000000), wk =   0.0000000
        k(   11) = (   0.0000000   0.2777778   0.0000000), wk =   0.0370370
        k(   12) = (   0.3333333   0.6111111   0.0000000), wk =   0.0000000
        k(   13) = (   0.0000000   0.3333333   0.0000000), wk =   0.0370370
        k(   14) = (   0.3333333   0.6666667   0.0000000), wk =   0.0000000
        k(   15) = (   0.0000000   0.3888889   0.0000000), wk =   0.0370370
        k(   16) = (   0.3333333   0.7222222   0.0000000), wk =   0.0000000
        k(   17) = (   0.0000000   0.4444444   0.0000000), wk =   0.0370370
        k(   18) = (   0.3333333   0.7777778   0.0000000), wk =   0.0000000
        k(   19) = (   0.0000000  -0.5000000   0.0000000), wk =   0.0185185
        k(   20) = (   0.3333333  -0.1666667   0.0000000), wk =   0.0000000
        k(   21) = (   0.0555556   0.0555556   0.0000000), wk =   0.0185185
        k(   22) = (   0.3888889   0.3888889   0.0000000), wk =   0.0000000
        k(   23) = (   0.0555556   0.1111111   0.0000000), wk =   0.0370370
        k(   24) = (   0.3888889   0.4444444   0.0000000), wk =   0.0000000
        k(   25) = (   0.0555556   0.1666667   0.0000000), wk =   0.0370370
        k(   26) = (   0.3888889   0.5000000   0.0000000), wk =   0.0000000
        k(   27) = (   0.0555556   0.2222222   0.0000000), wk =   0.0370370
        k(   28) = (   0.3888889   0.5555556   0.0000000), wk =   0.0000000
        k(   29) = (   0.0555556   0.2777778   0.0000000), wk =   0.0370370
        k(   30) = (   0.3888889   0.6111111   0.0000000), wk =   0.0000000
        k(   31) = (   0.0555556   0.3333333   0.0000000), wk =   0.0370370
        k(   32) = (   0.3888889   0.6666667   0.0000000), wk =   0.0000000
        k(   33) = (   0.0555556   0.3888889   0.0000000), wk =   0.0370370
        k(   34) = (   0.3888889   0.7222222   0.0000000), wk =   0.0000000
        k(   35) = (   0.0555556   0.4444444   0.0000000), wk =   0.0370370
        k(   36) = (   0.3888889   0.7777778   0.0000000), wk =   0.0000000
        k(   37) = (   0.1111111   0.1111111   0.0000000), wk =   0.0185185
        k(   38) = (   0.4444444   0.4444444   0.0000000), wk =   0.0000000
        k(   39) = (   0.1111111   0.1666667   0.0000000), wk =   0.0370370
        k(   40) = (   0.4444444   0.5000000   0.0000000), wk =   0.0000000
        k(   41) = (   0.1111111   0.2222222   0.0000000), wk =   0.0370370
        k(   42) = (   0.4444444   0.5555556   0.0000000), wk =   0.0000000
        k(   43) = (   0.1111111   0.2777778   0.0000000), wk =   0.0370370
        k(   44) = (   0.4444444   0.6111111   0.0000000), wk =   0.0000000
        k(   45) = (   0.1111111   0.3333333   0.0000000), wk =   0.0370370
        k(   46) = (   0.4444444   0.6666667   0.0000000), wk =   0.0000000
        k(   47) = (   0.1111111   0.3888889   0.0000000), wk =   0.0370370
        k(   48) = (   0.4444444   0.7222222   0.0000000), wk =   0.0000000
        k(   49) = (   0.1111111   0.4444444   0.0000000), wk =   0.0185185
        k(   50) = (   0.4444444   0.7777778   0.0000000), wk =   0.0000000
        k(   51) = (   0.1666667   0.1666667   0.0000000), wk =   0.0185185
        k(   52) = (   0.5000000   0.5000000   0.0000000), wk =   0.0000000
        k(   53) = (   0.1666667   0.2222222   0.0000000), wk =   0.0370370
        k(   54) = (   0.5000000   0.5555556   0.0000000), wk =   0.0000000
        k(   55) = (   0.1666667   0.2777778   0.0000000), wk =   0.0370370
        k(   56) = (   0.5000000   0.6111111   0.0000000), wk =   0.0000000
        k(   57) = (   0.1666667   0.3333333   0.0000000), wk =   0.0370370
        k(   58) = (   0.5000000   0.6666667   0.0000000), wk =   0.0000000
        k(   59) = (   0.1666667   0.3888889   0.0000000), wk =   0.0370370
        k(   60) = (   0.5000000   0.7222222   0.0000000), wk =   0.0000000
        k(   61) = (   0.2222222   0.2222222   0.0000000), wk =   0.0185185
        k(   62) = (   0.5555556   0.5555556   0.0000000), wk =   0.0000000
        k(   63) = (   0.2222222   0.2777778   0.0000000), wk =   0.0370370
        k(   64) = (   0.5555556   0.6111111   0.0000000), wk =   0.0000000
        k(   65) = (   0.2222222   0.3333333   0.0000000), wk =   0.0370370
        k(   66) = (   0.5555556   0.6666667   0.0000000), wk =   0.0000000
        k(   67) = (   0.2222222   0.3888889   0.0000000), wk =   0.0185185
        k(   68) = (   0.5555556   0.7222222   0.0000000), wk =   0.0000000
        k(   69) = (   0.2777778   0.2777778   0.0000000), wk =   0.0185185
        k(   70) = (   0.6111111   0.6111111   0.0000000), wk =   0.0000000
        k(   71) = (   0.2777778   0.3333333   0.0000000), wk =   0.0370370
        k(   72) = (   0.6111111   0.6666667   0.0000000), wk =   0.0000000
        k(   73) = (   0.3333333   0.3333333   0.0000000), wk =   0.0061728
        k(   74) = (   0.6666667   0.6666667   0.0000000), wk =   0.0000000
        k(   75) = (  -0.0555556  -0.0555556   0.0000000), wk =   0.0185185
        k(   76) = (   0.2777778   0.2777778   0.0000000), wk =   0.0000000
        k(   77) = (  -0.0555556  -0.1111111   0.0000000), wk =   0.0370370
        k(   78) = (   0.2777778   0.2222222   0.0000000), wk =   0.0000000
        k(   79) = (  -0.0555556  -0.1666667   0.0000000), wk =   0.0370370
        k(   80) = (   0.2777778   0.1666667   0.0000000), wk =   0.0000000
        k(   81) = (  -0.0555556  -0.2222222   0.0000000), wk =   0.0370370
        k(   82) = (   0.2777778   0.1111111   0.0000000), wk =   0.0000000
        k(   83) = (  -0.0555556  -0.2777778   0.0000000), wk =   0.0370370
        k(   84) = (   0.2777778   0.0555556   0.0000000), wk =   0.0000000
        k(   85) = (  -0.0555556  -0.3333333   0.0000000), wk =   0.0370370
        k(   86) = (   0.2777778   0.0000000   0.0000000), wk =   0.0000000
        k(   87) = (  -0.0555556  -0.3888889   0.0000000), wk =   0.0370370
        k(   88) = (   0.2777778  -0.0555556   0.0000000), wk =   0.0000000
        k(   89) = (  -0.0555556  -0.4444444   0.0000000), wk =   0.0370370
        k(   90) = (   0.2777778  -0.1111111   0.0000000), wk =   0.0000000
        k(   91) = (  -0.1111111  -0.1111111   0.0000000), wk =   0.0185185
        k(   92) = (   0.2222222   0.2222222   0.0000000), wk =   0.0000000
        k(   93) = (  -0.1111111  -0.1666667   0.0000000), wk =   0.0370370
        k(   94) = (   0.2222222   0.1666667   0.0000000), wk =   0.0000000
        k(   95) = (  -0.1111111  -0.2222222   0.0000000), wk =   0.0370370
        k(   96) = (   0.2222222   0.1111111   0.0000000), wk =   0.0000000
        k(   97) = (  -0.1111111  -0.2777778   0.0000000), wk =   0.0370370
        k(   98) = (   0.2222222   0.0555556   0.0000000), wk =   0.0000000
        k(   99) = (  -0.1111111  -0.3333333   0.0000000), wk =   0.0370370
        k(  100) = (   0.2222222   0.0000000   0.0000000), wk =   0.0000000
        k(  101) = (  -0.1111111  -0.3888889   0.0000000), wk =   0.0370370
        k(  102) = (   0.2222222  -0.0555556   0.0000000), wk =   0.0000000
        k(  103) = (  -0.1111111  -0.4444444   0.0000000), wk =   0.0185185
        k(  104) = (   0.2222222  -0.1111111   0.0000000), wk =   0.0000000
        k(  105) = (  -0.1666667  -0.1666667   0.0000000), wk =   0.0185185
        k(  106) = (   0.1666667   0.1666667   0.0000000), wk =   0.0000000
        k(  107) = (  -0.1666667  -0.2222222   0.0000000), wk =   0.0370370
        k(  108) = (   0.1666667   0.1111111   0.0000000), wk =   0.0000000
        k(  109) = (  -0.1666667  -0.2777778   0.0000000), wk =   0.0370370
        k(  110) = (   0.1666667   0.0555556   0.0000000), wk =   0.0000000
        k(  111) = (  -0.1666667  -0.3333333   0.0000000), wk =   0.0370370
        k(  112) = (   0.1666667   0.0000000   0.0000000), wk =   0.0000000
        k(  113) = (  -0.1666667  -0.3888889   0.0000000), wk =   0.0370370
        k(  114) = (   0.1666667  -0.0555556   0.0000000), wk =   0.0000000
        k(  115) = (  -0.2222222  -0.2222222   0.0000000), wk =   0.0185185
        k(  116) = (   0.1111111   0.1111111   0.0000000), wk =   0.0000000
        k(  117) = (  -0.2222222  -0.2777778   0.0000000), wk =   0.0370370
        k(  118) = (   0.1111111   0.0555556   0.0000000), wk =   0.0000000
        k(  119) = (  -0.2222222  -0.3333333   0.0000000), wk =   0.0370370
        k(  120) = (   0.1111111  -0.0000000   0.0000000), wk =   0.0000000
        k(  121) = (  -0.2222222  -0.3888889   0.0000000), wk =   0.0185185
        k(  122) = (   0.1111111  -0.0555556   0.0000000), wk =   0.0000000
        k(  123) = (  -0.2777778  -0.2777778   0.0000000), wk =   0.0185185
        k(  124) = (   0.0555556   0.0555556   0.0000000), wk =   0.0000000
        k(  125) = (  -0.2777778  -0.3333333   0.0000000), wk =   0.0370370
        k(  126) = (   0.0555556  -0.0000000   0.0000000), wk =   0.0000000
        k(  127) = (  -0.3333333  -0.3333333   0.0000000), wk =   0.0061728
        k(  128) = (  -0.0000000   0.0000000   0.0000000), wk =   0.0000000

     Dense  grid:  1108055 G-vectors     FFT dimensions: (  72,  72, 500)

     Dynamical RAM for                 wfc:       3.96 MB

     Dynamical RAM for     wfc (w. buffer):       3.96 MB

     Dynamical RAM for           str. fact:       4.23 MB

     Dynamical RAM for           local pot:       0.53 MB

     Dynamical RAM for          nlocal pot:       8.46 MB

     Dynamical RAM for                qrad:       2.30 MB

     Dynamical RAM for          rho,v,vnew:      13.82 MB

     Dynamical RAM for           G-vectors:       8.98 MB

     Dynamical RAM for          h,s,v(r/c):       0.16 MB

     Dynamical RAM for          <psi|beta>:       0.01 MB

     Dynamical RAM for                 psi:      15.86 MB

     Dynamical RAM for                hpsi:      15.86 MB

     Dynamical RAM for                spsi:      15.86 MB

     Dynamical RAM for      wfcinit/wfcrot:       8.46 MB

     Dynamical RAM for           addusdens:      95.10 MB

     Estimated static dynamical RAM per process >      61.07 MB

     Estimated max dynamical RAM per process >     156.17 MB

     Estimated total dynamical RAM >       1.22 GB
 ----2D----2D----2D----2D----2D----2D----2D----2D----2D----2D----2D----2D
  The code is running with the 2D cutoff
  Please refer to:
  Sohier, T., Calandra, M., & Mauri, F. (2017), 
  Density functional perturbation theory for gated two-dimensional heterostructures:
  Theoretical developments and application to flexural phonons in graphene.
  Physical Review B, 96(7), 75448. https://doi.org/10.1103/PhysRevB.96.075448
 ----2D----2D----2D----2D----2D----2D----2D----2D----2D----2D----2D----2D

     The potential is recalculated from file :
     /home/ext_chineason_graduate_utm_my/fgc/tmp/12.5/_ph0/fgc.save/charge-density


     negative rho (up, down):  5.457E-06 0.000E+00
     Starting wfcs are   16 atomic wfcs

     Band Structure Calculation
     Davidson diagonalization with overlap

     Computing kpt #:     1
     total cpu time spent up to now is       11.7 secs

     Computing kpt #:     2
     total cpu time spent up to now is       19.9 secs

     Computing kpt #:     3
     total cpu time spent up to now is       35.5 secs

     Computing kpt #:     4
     total cpu time spent up to now is       46.3 secs

     Computing kpt #:     5
     total cpu time spent up to now is       66.5 secs

     Computing kpt #:     6
     total cpu time spent up to now is       81.8 secs

     Computing kpt #:     7
     total cpu time spent up to now is       94.9 secs

     Computing kpt #:     8
     total cpu time spent up to now is      106.6 secs

     Computing kpt #:     9
     total cpu time spent up to now is      121.0 secs

     Computing kpt #:    10
     total cpu time spent up to now is      135.7 secs

     Computing kpt #:    11
     total cpu time spent up to now is      152.7 secs

     Computing kpt #:    12
     total cpu time spent up to now is      171.5 secs

     Computing kpt #:    13
     total cpu time spent up to now is      184.8 secs

     Computing kpt #:    14
     total cpu time spent up to now is      203.2 secs

     Computing kpt #:    15
     total cpu time spent up to now is      213.0 secs

     Computing kpt #:    16
     total cpu time spent up to now is      229.7 secs

     Computing kpt #:    17
     total cpu time spent up to now is      239.5 secs

     Computing kpt #:    18
     total cpu time spent up to now is      258.7 secs

     Computing kpt #:    19
     total cpu time spent up to now is      267.4 secs

     Computing kpt #:    20
     total cpu time spent up to now is      285.5 secs

     Computing kpt #:    21
     total cpu time spent up to now is      310.8 secs

     Computing kpt #:    22
     total cpu time spent up to now is      324.7 secs

     Computing kpt #:    23
     total cpu time spent up to now is      339.0 secs

     Computing kpt #:    24
     total cpu time spent up to now is      354.3 secs

     Computing kpt #:    25
     total cpu time spent up to now is      372.3 secs

     Computing kpt #:    26
     total cpu time spent up to now is      388.8 secs

     Computing kpt #:    27
     total cpu time spent up to now is      406.9 secs

     Computing kpt #:    28
     total cpu time spent up to now is      426.0 secs

     Computing kpt #:    29
     total cpu time spent up to now is      443.0 secs

     Computing kpt #:    30
     total cpu time spent up to now is      454.0 secs

     Computing kpt #:    31
     total cpu time spent up to now is      474.1 secs

     Computing kpt #:    32
     total cpu time spent up to now is      496.1 secs

     Computing kpt #:    33
     total cpu time spent up to now is      516.5 secs

     Computing kpt #:    34
     total cpu time spent up to now is      537.2 secs

     Computing kpt #:    35
     total cpu time spent up to now is      554.6 secs

     Computing kpt #:    36
     total cpu time spent up to now is      570.1 secs

     Computing kpt #:    37
     total cpu time spent up to now is      586.6 secs

     Computing kpt #:    38
     total cpu time spent up to now is      602.2 secs

     Computing kpt #:    39
     total cpu time spent up to now is      618.2 secs

     Computing kpt #:    40
     total cpu time spent up to now is      635.0 secs

     Computing kpt #:    41
     total cpu time spent up to now is      654.2 secs

     Computing kpt #:    42
     total cpu time spent up to now is      664.5 secs

     Computing kpt #:    43
     total cpu time spent up to now is      685.9 secs

     Computing kpt #:    44
     total cpu time spent up to now is      704.9 secs

     Computing kpt #:    45
     total cpu time spent up to now is      724.1 secs

     Computing kpt #:    46
     total cpu time spent up to now is      742.4 secs

     Computing kpt #:    47
     total cpu time spent up to now is      759.2 secs

     Computing kpt #:    48
     total cpu time spent up to now is      774.7 secs

     Computing kpt #:    49
     total cpu time spent up to now is      790.1 secs

     Computing kpt #:    50
     total cpu time spent up to now is      805.0 secs

     Computing kpt #:    51
     total cpu time spent up to now is      822.7 secs

     Computing kpt #:    52
     total cpu time spent up to now is      833.2 secs

     Computing kpt #:    53
     total cpu time spent up to now is      849.8 secs

     Computing kpt #:    54
     total cpu time spent up to now is      866.9 secs

     Computing kpt #:    55
     total cpu time spent up to now is      881.8 secs

     Computing kpt #:    56
     total cpu time spent up to now is      898.1 secs

     Computing kpt #:    57
     total cpu time spent up to now is      913.0 secs

     Computing kpt #:    58
     total cpu time spent up to now is      924.3 secs

     Computing kpt #:    59
     total cpu time spent up to now is      935.0 secs

     Computing kpt #:    60
     total cpu time spent up to now is      947.9 secs

     Computing kpt #:    61
     total cpu time spent up to now is      958.0 secs

     Computing kpt #:    62
     total cpu time spent up to now is      970.0 secs

     Computing kpt #:    63
     total cpu time spent up to now is      983.0 secs

     Computing kpt #:    64
     total cpu time spent up to now is      994.3 secs

     Computing kpt #:    65
     total cpu time spent up to now is     1006.0 secs

     Computing kpt #:    66
     total cpu time spent up to now is     1017.4 secs

     Computing kpt #:    67
     total cpu time spent up to now is     1031.6 secs

     Computing kpt #:    68
     total cpu time spent up to now is     1047.0 secs

     Computing kpt #:    69
     total cpu time spent up to now is     1061.9 secs

     Computing kpt #:    70
     total cpu time spent up to now is     1075.7 secs

     Computing kpt #:    71
     total cpu time spent up to now is     1087.0 secs

     Computing kpt #:    72
     total cpu time spent up to now is     1097.5 secs

     Computing kpt #:    73
     total cpu time spent up to now is     1106.7 secs

     Computing kpt #:    74
     total cpu time spent up to now is     1115.9 secs

     Computing kpt #:    75
     total cpu time spent up to now is     1134.4 secs

     Computing kpt #:    76
     total cpu time spent up to now is     1146.0 secs

     Computing kpt #:    77
     total cpu time spent up to now is     1160.1 secs

     Computing kpt #:    78
     total cpu time spent up to now is     1176.4 secs

     Computing kpt #:    79
     total cpu time spent up to now is     1189.6 secs

     Computing kpt #:    80
     total cpu time spent up to now is     1200.0 secs

     Computing kpt #:    81
     total cpu time spent up to now is     1213.9 secs

     Computing kpt #:    82
     total cpu time spent up to now is     1231.3 secs

     Computing kpt #:    83
     total cpu time spent up to now is     1248.7 secs

     Computing kpt #:    84
     total cpu time spent up to now is     1266.4 secs

     Computing kpt #:    85
     total cpu time spent up to now is     1286.0 secs

     Computing kpt #:    86
     total cpu time spent up to now is     1299.2 secs

     Computing kpt #:    87
     total cpu time spent up to now is     1315.1 secs

     Computing kpt #:    88
     total cpu time spent up to now is     1334.5 secs

     Computing kpt #:    89
     total cpu time spent up to now is     1350.7 secs

     Computing kpt #:    90
     total cpu time spent up to now is     1363.4 secs

     Computing kpt #:    91
     total cpu time spent up to now is     1374.8 secs

     Computing kpt #:    92
     total cpu time spent up to now is     1385.1 secs

     Computing kpt #:    93
     total cpu time spent up to now is     1396.9 secs

     Computing kpt #:    94
     total cpu time spent up to now is     1409.6 secs

     Computing kpt #:    95
     total cpu time spent up to now is     1423.5 secs

     Computing kpt #:    96
     total cpu time spent up to now is     1437.9 secs

     Computing kpt #:    97
     total cpu time spent up to now is     1454.0 secs

     Computing kpt #:    98
     total cpu time spent up to now is     1470.9 secs

     Computing kpt #:    99
     total cpu time spent up to now is     1485.0 secs

     Computing kpt #:   100
     total cpu time spent up to now is     1497.0 secs

     Computing kpt #:   101
     total cpu time spent up to now is     1511.7 secs

     Computing kpt #:   102
     total cpu time spent up to now is     1525.1 secs

     Computing kpt #:   103
     total cpu time spent up to now is     1538.5 secs

     Computing kpt #:   104
     total cpu time spent up to now is     1551.3 secs

     Computing kpt #:   105
     total cpu time spent up to now is     1564.4 secs

     Computing kpt #:   106
     total cpu time spent up to now is     1577.1 secs

     Computing kpt #:   107
     total cpu time spent up to now is     1588.1 secs

     Computing kpt #:   108
     total cpu time spent up to now is     1598.9 secs

     Computing kpt #:   109
     total cpu time spent up to now is     1611.4 secs

     Computing kpt #:   110
     total cpu time spent up to now is     1624.1 secs

     Computing kpt #:   111
     total cpu time spent up to now is     1637.0 secs

     Computing kpt #:   112
     total cpu time spent up to now is     1646.5 secs

     Computing kpt #:   113
     total cpu time spent up to now is     1661.0 secs

     Computing kpt #:   114
     total cpu time spent up to now is     1673.1 secs

     Computing kpt #:   115
     total cpu time spent up to now is     1683.4 secs

     Computing kpt #:   116
     total cpu time spent up to now is     1698.1 secs

     Computing kpt #:   117
     total cpu time spent up to now is     1711.6 secs

     Computing kpt #:   118
     total cpu time spent up to now is     1725.7 secs

     Computing kpt #:   119
     total cpu time spent up to now is     1740.4 secs

     Computing kpt #:   120
     total cpu time spent up to now is     1760.5 secs

     Computing kpt #:   121
     total cpu time spent up to now is     1772.6 secs

     Computing kpt #:   122
     total cpu time spent up to now is     1792.4 secs

     Computing kpt #:   123
     total cpu time spent up to now is     1805.9 secs

     Computing kpt #:   124
     total cpu time spent up to now is     1826.9 secs

     Computing kpt #:   125
     total cpu time spent up to now is     1838.6 secs

     Computing kpt #:   126
     total cpu time spent up to now is     1853.3 secs

     Computing kpt #:   127
     total cpu time spent up to now is     1862.4 secs

     Computing kpt #:   128
     total cpu time spent up to now is     1870.1 secs

     ethr =  4.55E-11,  avg # of iterations = 27.0

     total cpu time spent up to now is     1870.1 secs

     End of band structure calculation

          k = 0.0000 0.0000 0.0000 (138795 PWs)   bands (ev):

   -33.3331 -32.8377 -24.1204 -16.7591 -13.7783 -12.0347 -12.0347 -10.8581
   -10.8581  -7.8871  -7.8871  -4.7441  -0.5270  -0.5270  -0.0607

     occupation numbers 
     1.0000   1.0000   1.0000   1.0000   1.0000   1.0000   1.0000   1.0000
     1.0000   1.0000   1.0000   0.0000   0.0000   0.0000   0.0000

          k = 0.3333 0.5774 0.0000 (138474 PWs)   bands (ev):

   -32.1407 -32.1407 -19.4663 -19.4663 -17.1249 -14.8513 -14.8513 -12.7712
   -11.4353 -11.4353 -10.7958   0.8845   0.8845   3.0902   4.5548

     occupation numbers 
     0.0000   0.0000   0.0000   0.0000   0.0000   0.0000   0.0000   0.0000
     0.0000   0.0000   0.0000   0.0000   0.0000   0.0000   0.0000

          k = 0.0000 0.0642 0.0000 (138757 PWs)   bands (ev):

   -33.3060 -32.8183 -24.0729 -16.7335 -13.8006 -12.2483 -12.1035 -10.9125
   -10.8691  -8.1007  -7.9620  -4.5687  -0.5025  -0.3188  -0.1163

     occupation numbers 
     1.0000   1.0000   1.0000   1.0000   1.0000   1.0000   1.0000   1.0000
     1.0000   1.0000   1.0000   0.0000   0.0000   0.0000   0.0000

          k = 0.3333 0.6415 0.0000 (138511 PWs)   bands (ev):

   -32.1759 -32.1324 -20.0021 -19.0819 -16.8693 -14.9875 -14.7233 -12.7252
   -11.5502 -11.3755 -10.6493   0.4269   1.2049   3.2085   3.7163

     occupation numbers 
     0.0000   0.0000   0.0000   0.0000   0.0000   0.0000   0.0000   0.0000
     0.0000   0.0000   0.0000   0.0000   0.0000   0.0000   0.0000

          k = 0.0000 0.1283 0.0000 (138715 PWs)   bands (ev):

   -33.2272 -32.7621 -23.9307 -16.6606 -13.8746 -12.8275 -12.2960 -11.0694
   -10.9033  -8.6250  -8.1545  -4.1612  -0.4463   0.1498   0.2555

     occupation numbers 
     1.0000   1.0000   1.0000   1.0000   1.0000   1.0000   1.0000   1.0000
     1.0000   1.0000   1.0000   0.0000   0.0000   0.0000   0.0000

          k = 0.3333 0.7057 0.0000 (138504 PWs)   bands (ev):

   -32.2365 -32.1487 -20.6016 -18.7983 -16.2753 -15.1046 -14.6018 -12.5990
   -11.6692 -11.3158 -10.3261  -0.1732   1.4105   2.5519   3.5166

     occupation numbers 
     0.0000   0.0000   0.0000   0.0000   0.0000   0.0000   0.0000   0.0000
     0.0000   0.0000   0.0000   0.0000   0.0000   0.0000   0.0000

          k = 0.0000 0.1925 0.0000 (138677 PWs)   bands (ev):

   -33.1036 -32.6752 -23.6942 -16.5538 -14.0686 -13.5866 -12.5774 -11.3007
   -10.9604  -9.2832  -8.3995  -3.7015  -0.3609   0.5653   0.8647

     occupation numbers 
     1.0000   1.0000   1.0000   1.0000   1.0000   1.0000   1.0000   1.0000
     1.0000   1.0000   1.0000   0.0000   0.0000   0.0000   0.0000

          k = 0.3333 0.7698 0.0000 (138488 PWs)   bands (ev):

   -32.3179 -32.1849 -21.1752 -18.5087 -15.7250 -15.0759 -14.4515 -12.4257
   -11.7182 -11.2435  -9.9393  -0.9321   1.5305   1.5716   3.8158

     occupation numbers 
     0.0000   0.0000   0.0000   0.0000   0.0000   0.0000   0.0000   0.0000
     0.0000   0.0000   0.0000   0.0000   0.0000   0.0000   0.0000

          k = 0.0000 0.2566 0.0000 (138628 PWs)   bands (ev):

   -32.9467 -32.5672 -23.3639 -16.4531 -14.7702 -13.9964 -12.9032 -11.5626
   -11.0351  -9.9627  -8.6445  -3.2962  -0.2257   1.1165   1.5031

     occupation numbers 
     1.0000   1.0000   1.0000   1.0000   1.0000   1.0000   1.0000   1.0000
     1.0000   1.0000   1.0000   0.0000   0.0000   0.0000   0.0000

          k = 0.3333 0.8340 0.0000 (138517 PWs)   bands (ev):

   -32.4123 -32.2345 -21.6800 -18.1615 -15.6250 -14.7515 -14.1687 -12.2570
   -11.6529 -11.1784  -9.5476  -1.7693   0.8444   1.6876   3.9571

     occupation numbers 
     0.0000   0.0000   0.0000   0.0000   0.0000   0.0000   0.0000   0.0000
     0.0000   0.0000   0.0000   0.0000   0.0000   0.0000   0.0000

          k = 0.0000 0.3208 0.0000 (138614 PWs)   bands (ev):

   -32.7724 -32.4514 -22.9405 -16.5529 -15.5550 -14.2036 -13.2292 -11.8161
   -11.1177 -10.5940  -8.8607  -2.9861  -0.0349   1.7106   2.2643

     occupation numbers 
     1.0000   1.0000   1.0000   1.0000   1.0000   1.0000   1.0000   1.0000
     1.0000   1.0000   1.0000   0.0000   0.0000   0.0000   0.0000

          k = 0.3333 0.8981 0.0000 (138494 PWs)   bands (ev):

   -32.5097 -32.2898 -22.0987 -17.7463 -15.6888 -14.5246 -13.7690 -12.1340
   -11.4518 -11.1478  -9.2155  -2.4534   0.4079   1.8166   3.6978

     occupation numbers 
     0.0000   0.0000   0.0000   0.0000   0.0000   0.0000   0.0000   0.0000
     0.0000   0.0000   0.0000   0.0000   0.0000   0.0000   0.0000

          k = 0.0000 0.3849 0.0000 (138514 PWs)   bands (ev):

   -32.5995 -32.3430 -22.4254 -17.2835 -15.7364 -14.3960 -13.5184 -12.0367
   -11.1969 -11.1280  -9.0354  -2.7648   0.1860   1.9214   3.1581

     occupation numbers 
     1.0000   1.0000   1.0000   1.0000   1.0000   1.0000   1.0000   1.0000
     1.0000   1.0000   1.0000   0.0000   0.0000   0.0000   0.0000

          k = 0.3333 0.9623 0.0000 (138514 PWs)   bands (ev):

   -32.5995 -32.3430 -22.4254 -17.2835 -15.7364 -14.3960 -13.5184 -12.0367
   -11.1969 -11.1280  -9.0354  -2.7647   0.1860   1.9214   3.1581

     occupation numbers 
     0.0000   0.0000   0.0000   0.0000   0.0000   0.0000   0.0000   0.0000
     0.0000   0.0000   0.0000   0.0000   0.0000   0.0000   0.0000

          k = 0.0000 0.4491 0.0000 (138512 PWs)   bands (ev):

   -32.4491 -32.2577 -21.8236 -18.2576 -15.6541 -14.5636 -13.7432 -12.2107
   -11.5284 -11.2619  -9.1630  -2.6086   0.4027   1.5931   4.3181

     occupation numbers 
     1.0000   1.0000   1.0000   1.0000   1.0000   1.0000   1.0000   1.0000
     1.0000   1.0000   1.0000   0.0000   0.0000   0.0000   0.0000

          k = 0.3333 1.0264 0.0000 (138564 PWs)   bands (ev):

   -32.6718 -32.3869 -22.6586 -16.8425 -15.6930 -14.3579 -13.4934 -11.9236
   -11.2767 -10.7942  -9.0653  -2.6786   0.2070   1.9486   2.7388

     occupation numbers 
     0.0000   0.0000   0.0000   0.0000   0.0000   0.0000   0.0000   0.0000
     0.0000   0.0000   0.0000   0.0000   0.0000   0.0000   0.0000

          k = 0.0000 0.5132 0.0000 (138448 PWs)   bands (ev):

   -32.3424 -32.2072 -21.1616 -19.1789 -15.5666 -14.6802 -13.8849 -12.3256
   -11.7730 -11.3045  -9.2405  -2.5078   0.6027   1.2058   4.6724

     occupation numbers 
     1.0000   1.0000   1.0000   1.0000   1.0000   1.0000   1.0000   1.0000
     1.0000   1.0000   1.0000   0.0000   0.0000   0.0000   0.0000

          k = 0.3333 1.0906 0.0000 (138626 PWs)   bands (ev):

   -32.7186 -32.4157 -22.7982 -16.5572 -15.4763 -14.4831 -13.5668 -11.7764
   -11.4252 -10.4668  -9.2379  -2.4377   0.5340   1.9035   2.3458

     occupation numbers 
     0.0000   0.0000   0.0000   0.0000   0.0000   0.0000   0.0000   0.0000
     0.0000   0.0000   0.0000   0.0000   0.0000   0.0000   0.0000

          k = 0.0000-0.5774 0.0000 (138400 PWs)   bands (ev):

   -32.3021 -32.1924 -20.7012 -19.7298 -15.5320 -14.7226 -13.9333 -12.3665
   -11.8546 -11.3193  -9.2666  -2.4714   0.7451   0.9861   4.7895

     occupation numbers 
     1.0000   1.0000   1.0000   1.0000   1.0000   1.0000   1.0000   1.0000
     1.0000   1.0000   1.0000   0.0000   0.0000   0.0000   0.0000

          k = 0.3333 0.0000 0.0000 (138593 PWs)   bands (ev):

   -32.7348 -32.4257 -22.8446 -16.4760 -15.2592 -14.6549 -13.5981 -11.6114
   -11.5933 -10.3063  -9.3543  -2.3263   0.8984   1.8396   1.9732

     occupation numbers 
     0.0000   0.0000   0.0000   0.0000   0.0000   0.0000   0.0000   0.0000
     0.0000   0.0000   0.0000   0.0000   0.0000   0.0000   0.0000

          k = 0.0556 0.0962 0.0000 (138747 PWs)   bands (ev):

   -33.2531 -32.7805 -23.9781 -16.6842 -13.8476 -12.6350 -12.2461 -11.0038
   -10.9055  -8.4506  -8.1123  -4.2765  -0.4186  -0.0153   0.0696

     occupation numbers 
     1.0000   1.0000   1.0000   1.0000   1.0000   1.0000   1.0000   1.0000
     1.0000   1.0000   1.0000   0.0000   0.0000   0.0000   0.0000

          k = 0.3889 0.6736 0.0000 (138486 PWs)   bands (ev):

   -32.2025 -32.1407 -20.1460 -19.2901 -16.3586 -15.0081 -14.7061 -12.6492
   -11.5554 -11.4915 -10.3658   0.0691   1.1821   2.5409   3.4936

     occupation numbers 
     0.0000   0.0000   0.0000   0.0000   0.0000   0.0000   0.0000   0.0000
     0.0000   0.0000   0.0000   0.0000   0.0000   0.0000   0.0000

          k = 0.0556 0.1604 0.0000 (138708 PWs)   bands (ev):

   -33.1519 -32.7089 -23.7887 -16.5938 -13.9573 -13.3078 -12.5074 -11.1759
   -10.9743  -9.0037  -8.3617  -3.8324  -0.2892   0.3994   0.4850

     occupation numbers 
     1.0000   1.0000   1.0000   1.0000   1.0000   1.0000   1.0000   1.0000
     1.0000   1.0000   1.0000   0.0000   0.0000   0.0000   0.0000

          k = 0.3889 0.7377 0.0000 (138485 PWs)   bands (ev):

   -32.2495 -32.1596 -20.5390 -19.2771 -15.7943 -14.9465 -14.6517 -12.5268
   -11.6856 -11.4282  -9.9953  -0.6503   1.1911   1.5937   3.8962

     occupation numbers 
     0.0000   0.0000   0.0000   0.0000   0.0000   0.0000   0.0000   0.0000
     0.0000   0.0000   0.0000   0.0000   0.0000   0.0000   0.0000

          k = 0.0556 0.2245 0.0000 (138662 PWs)   bands (ev):

   -33.0115 -32.6114 -23.5052 -16.4853 -14.3471 -13.9370 -12.8317 -11.4141
   -11.0596  -9.6373  -8.6280  -3.3741  -0.1546   0.8863   1.1417

     occupation numbers 
     1.0000   1.0000   1.0000   1.0000   1.0000   1.0000   1.0000   1.0000
     1.0000   1.0000   1.0000   0.0000   0.0000   0.0000   0.0000

          k = 0.3889 0.8019 0.0000 (138422 PWs)   bands (ev):

   -32.3111 -32.1880 -21.0190 -19.0551 -15.5835 -14.7493 -14.3991 -12.3967
   -11.7375 -11.3472  -9.6230  -1.5515   0.9488   1.2999   4.2492

     occupation numbers 
     0.0000   0.0000   0.0000   0.0000   0.0000   0.0000   0.0000   0.0000
     0.0000   0.0000   0.0000   0.0000   0.0000   0.0000   0.0000

          k = 0.0556 0.2887 0.0000 (138649 PWs)   bands (ev):

   -32.8457 -32.4993 -23.1282 -16.4429 -15.1964 -14.1683 -13.1720 -11.6757
   -11.1594 -10.2590  -8.8679  -2.9816   0.0109   1.4782   1.8938

     occupation numbers 
     1.0000   1.0000   1.0000   1.0000   1.0000   1.0000   1.0000   1.0000
     1.0000   1.0000   1.0000   0.0000   0.0000   0.0000   0.0000

          k = 0.3889 0.8660 0.0000 (138498 PWs)   bands (ev):

   -32.3802 -32.2222 -21.4599 -18.7046 -15.6004 -14.6464 -13.9740 -12.2901
   -11.6787 -11.2878  -9.3167  -2.2920   0.5934   1.4148   4.4077

     occupation numbers 
     0.0000   0.0000   0.0000   0.0000   0.0000   0.0000   0.0000   0.0000
     0.0000   0.0000   0.0000   0.0000   0.0000   0.0000   0.0000

          k = 0.0556 0.3528 0.0000 (138564 PWs)   bands (ev):

   -32.6718 -32.3869 -22.6586 -16.8425 -15.6930 -14.3579 -13.4934 -11.9236
   -11.2767 -10.7942  -9.0653  -2.6786   0.2070   1.9486   2.7388

     occupation numbers 
     1.0000   1.0000   1.0000   1.0000   1.0000   1.0000   1.0000   1.0000
     1.0000   1.0000   1.0000   0.0000   0.0000   0.0000   0.0000

          k = 0.3889 0.9302 0.0000 (138512 PWs)   bands (ev):

   -32.4491 -32.2577 -21.8236 -18.2576 -15.6541 -14.5636 -13.7432 -12.2107
   -11.5284 -11.2619  -9.1630  -2.6086   0.4027   1.5931   4.3181

     occupation numbers 
     0.0000   0.0000   0.0000   0.0000   0.0000   0.0000   0.0000   0.0000
     0.0000   0.0000   0.0000   0.0000   0.0000   0.0000   0.0000

          k = 0.0556 0.4170 0.0000 (138494 PWs)   bands (ev):

   -32.5097 -32.2898 -22.0987 -17.7463 -15.6888 -14.5246 -13.7690 -12.1340
   -11.4518 -11.1478  -9.2155  -2.4534   0.4079   1.8166   3.6978

     occupation numbers 
     1.0000   1.0000   1.0000   1.0000   1.0000   1.0000   1.0000   1.0000
     1.0000   1.0000   1.0000   0.0000   0.0000   0.0000   0.0000

          k = 0.3889 0.9943 0.0000 (138494 PWs)   bands (ev):

   -32.5097 -32.2898 -22.0987 -17.7463 -15.6888 -14.5246 -13.7690 -12.1340
   -11.4518 -11.1478  -9.2155  -2.4534   0.4079   1.8166   3.6978

     occupation numbers 
     0.0000   0.0000   0.0000   0.0000   0.0000   0.0000   0.0000   0.0000
     0.0000   0.0000   0.0000   0.0000   0.0000   0.0000   0.0000

          k = 0.0556 0.4811 0.0000 (138498 PWs)   bands (ev):

   -32.3802 -32.2222 -21.4599 -18.7046 -15.6004 -14.6464 -13.9740 -12.2901
   -11.6787 -11.2878  -9.3167  -2.2920   0.5934   1.4148   4.4077

     occupation numbers 
     1.0000   1.0000   1.0000   1.0000   1.0000   1.0000   1.0000   1.0000
     1.0000   1.0000   1.0000   0.0000   0.0000   0.0000   0.0000

          k = 0.3889 1.0585 0.0000 (138553 PWs)   bands (ev):

   -32.5547 -32.3141 -22.2823 -17.2390 -15.6628 -14.6555 -13.8864 -12.0409
   -11.5454 -10.8800  -9.4206  -2.0691   0.7076   2.0472   3.2644

     occupation numbers 
     0.0000   0.0000   0.0000   0.0000   0.0000   0.0000   0.0000   0.0000
     0.0000   0.0000   0.0000   0.0000   0.0000   0.0000   0.0000

          k = 0.0556 0.5453 0.0000 (138420 PWs)   bands (ev):

   -32.3047 -32.1910 -20.8193 -19.5196 -15.5420 -14.7091 -14.0850 -12.3748
   -11.8156 -11.3370  -9.3676  -2.2017   0.7663   1.0809   4.6293

     occupation numbers 
     1.0000   1.0000   1.0000   1.0000   1.0000   1.0000   1.0000   1.0000
     1.0000   1.0000   1.0000   0.0000   0.0000   0.0000   0.0000

          k = 0.3889 1.1226 0.0000 (138557 PWs)   bands (ev):

   -32.5787 -32.3271 -22.3740 -16.8891 -15.5229 -14.9822 -13.9228 -11.9412
   -11.6685 -10.6418  -9.6342  -1.8041   1.2894   2.2322   2.6553

     occupation numbers 
     0.0000   0.0000   0.0000   0.0000   0.0000   0.0000   0.0000   0.0000
     0.0000   0.0000   0.0000   0.0000   0.0000   0.0000   0.0000

          k = 0.1111 0.1925 0.0000 (138689 PWs)   bands (ev):

   -33.0338 -32.6267 -23.5523 -16.4992 -14.1002 -13.9852 -12.8458 -11.3053
   -11.1273  -9.4712  -8.6819  -3.3682   0.0313   0.7975   0.8419

     occupation numbers 
     1.0000   1.0000   1.0000   1.0000   1.0000   1.0000   1.0000   1.0000
     1.0000   1.0000   1.0000   0.0000   0.0000   0.0000   0.0000

          k = 0.4444 0.7698 0.0000 (138394 PWs)   bands (ev):

   -32.2725 -32.1747 -20.5613 -19.5951 -15.5708 -14.7038 -14.5185 -12.4447
   -11.7714 -11.3994  -9.6481  -1.4665   1.0644   1.0646   4.3213

     occupation numbers 
     0.0000   0.0000   0.0000   0.0000   0.0000   0.0000   0.0000   0.0000
     0.0000   0.0000   0.0000   0.0000   0.0000   0.0000   0.0000

          k = 0.1111 0.2566 0.0000 (138628 PWs)   bands (ev):

   -32.8844 -32.5248 -23.2220 -16.4227 -14.7925 -14.2801 -13.2158 -11.5089
   -11.2903  -9.9781  -8.9915  -2.8783   0.3190   1.3395   1.4828

     occupation numbers 
     1.0000   1.0000   1.0000   1.0000   1.0000   1.0000   1.0000   1.0000
     1.0000   1.0000   1.0000   0.0000   0.0000   0.0000   0.0000

          k = 0.4444 0.8340 0.0000 (138420 PWs)   bands (ev):

   -32.3047 -32.1910 -20.8193 -19.5196 -15.5420 -14.7091 -14.0850 -12.3748
   -11.8156 -11.3370  -9.3676  -2.2017   0.7663   1.0809   4.6293

     occupation numbers 
     0.0000   0.0000   0.0000   0.0000   0.0000   0.0000   0.0000   0.0000
     0.0000   0.0000   0.0000   0.0000   0.0000   0.0000   0.0000

          k = 0.1111 0.3208 0.0000 (138626 PWs)   bands (ev):

   -32.7186 -32.4157 -22.7982 -16.5572 -15.4763 -14.4831 -13.5668 -11.7764
   -11.4252 -10.4668  -9.2379  -2.4377   0.5340   1.9035   2.3458

     occupation numbers 
     1.0000   1.0000   1.0000   1.0000   1.0000   1.0000   1.0000   1.0000
     1.0000   1.0000   1.0000   0.0000   0.0000   0.0000   0.0000

          k = 0.4444 0.8981 0.0000 (138448 PWs)   bands (ev):

   -32.3424 -32.2072 -21.1616 -19.1789 -15.5666 -14.6802 -13.8849 -12.3256
   -11.7730 -11.3045  -9.2405  -2.5078   0.6027   1.2058   4.6724

     occupation numbers 
     0.0000   0.0000   0.0000   0.0000   0.0000   0.0000   0.0000   0.0000
     0.0000   0.0000   0.0000   0.0000   0.0000   0.0000   0.0000

          k = 0.1111 0.3849 0.0000 (138553 PWs)   bands (ev):

   -32.5547 -32.3141 -22.2823 -17.2390 -15.6628 -14.6555 -13.8864 -12.0409
   -11.5454 -10.8800  -9.4206  -2.0691   0.7076   2.0472   3.2644

     occupation numbers 
     1.0000   1.0000   1.0000   1.0000   1.0000   1.0000   1.0000   1.0000
     1.0000   1.0000   1.0000   0.0000   0.0000   0.0000   0.0000

          k = 0.4444 0.9623 0.0000 (138498 PWs)   bands (ev):

   -32.3802 -32.2222 -21.4599 -18.7046 -15.6004 -14.6464 -13.9740 -12.2901
   -11.6787 -11.2878  -9.3167  -2.2920   0.5934   1.4148   4.4077

     occupation numbers 
     0.0000   0.0000   0.0000   0.0000   0.0000   0.0000   0.0000   0.0000
     0.0000   0.0000   0.0000   0.0000   0.0000   0.0000   0.0000

          k = 0.1111 0.4491 0.0000 (138517 PWs)   bands (ev):

   -32.4123 -32.2345 -21.6800 -18.1615 -15.6250 -14.7515 -14.1687 -12.2570
   -11.6529 -11.1784  -9.5476  -1.7693   0.8444   1.6876   3.9571

     occupation numbers 
     1.0000   1.0000   1.0000   1.0000   1.0000   1.0000   1.0000   1.0000
     1.0000   1.0000   1.0000   0.0000   0.0000   0.0000   0.0000

          k = 0.4444 1.0264 0.0000 (138517 PWs)   bands (ev):

   -32.4123 -32.2345 -21.6800 -18.1615 -15.6250 -14.7515 -14.1687 -12.2570
   -11.6529 -11.1784  -9.5476  -1.7693   0.8444   1.6876   3.9571

     occupation numbers 
     0.0000   0.0000   0.0000   0.0000   0.0000   0.0000   0.0000   0.0000
     0.0000   0.0000   0.0000   0.0000   0.0000   0.0000   0.0000

          k = 0.1111 0.5132 0.0000 (138422 PWs)   bands (ev):

   -32.3111 -32.1880 -21.0190 -19.0551 -15.5835 -14.7493 -14.3991 -12.3967
   -11.7375 -11.3472  -9.6230  -1.5515   0.9488   1.2999   4.2492

     occupation numbers 
     1.0000   1.0000   1.0000   1.0000   1.0000   1.0000   1.0000   1.0000
     1.0000   1.0000   1.0000   0.0000   0.0000   0.0000   0.0000

          k = 0.4444 1.0906 0.0000 (138505 PWs)   bands (ev):

   -32.4338 -32.2427 -21.8133 -17.6478 -15.6203 -15.1303 -14.2035 -12.2257
   -11.7132 -10.9671  -9.8231  -1.3373   1.4690   2.0096   3.4393

     occupation numbers 
     0.0000   0.0000   0.0000   0.0000   0.0000   0.0000   0.0000   0.0000
     0.0000   0.0000   0.0000   0.0000   0.0000   0.0000   0.0000

          k = 0.1111 0.5774 0.0000 (138394 PWs)   bands (ev):

   -32.2725 -32.1747 -20.5613 -19.5951 -15.5708 -14.7038 -14.5185 -12.4447
   -11.7714 -11.3994  -9.6481  -1.4665   1.0644   1.0646   4.3213

     occupation numbers 
     1.0000   1.0000   1.0000   1.0000   1.0000   1.0000   1.0000   1.0000
     1.0000   1.0000   1.0000   0.0000   0.0000   0.0000   0.0000

          k = 0.4444 1.1547 0.0000 (138485 PWs)   bands (ev):

   -32.4413 -32.2456 -21.8578 -17.4021 -15.5623 -15.4154 -14.1911 -12.2107
   -11.7500 -10.8406  -9.9692  -1.1961   1.8816   2.6205   2.7462

     occupation numbers 
     0.0000   0.0000   0.0000   0.0000   0.0000   0.0000   0.0000   0.0000
     0.0000   0.0000   0.0000   0.0000   0.0000   0.0000   0.0000

          k = 0.1667 0.2887 0.0000 (138593 PWs)   bands (ev):

   -32.7348 -32.4257 -22.8446 -16.4760 -15.2592 -14.6549 -13.5981 -11.6114
   -11.5933 -10.3063  -9.3543  -2.3263   0.8984   1.8396   1.9732

     occupation numbers 
     1.0000   1.0000   1.0000   1.0000   1.0000   1.0000   1.0000   1.0000
     1.0000   1.0000   1.0000   0.0000   0.0000   0.0000   0.0000

          k = 0.5000 0.8660 0.0000 (138400 PWs)   bands (ev):

   -32.3021 -32.1924 -20.7012 -19.7298 -15.5320 -14.7226 -13.9333 -12.3665
   -11.8546 -11.3193  -9.2666  -2.4714   0.7451   0.9861   4.7895

     occupation numbers 
     0.0000   0.0000   0.0000   0.0000   0.0000   0.0000   0.0000   0.0000
     0.0000   0.0000   0.0000   0.0000   0.0000   0.0000   0.0000

          k = 0.1667 0.3528 0.0000 (138557 PWs)   bands (ev):

   -32.5787 -32.3271 -22.3740 -16.8891 -15.5229 -14.9822 -13.9228 -11.9412
   -11.6685 -10.6418  -9.6342  -1.8041   1.2894   2.2322   2.6553

     occupation numbers 
     1.0000   1.0000   1.0000   1.0000   1.0000   1.0000   1.0000   1.0000
     1.0000   1.0000   1.0000   0.0000   0.0000   0.0000   0.0000

          k = 0.5000 0.9302 0.0000 (138420 PWs)   bands (ev):

   -32.3047 -32.1910 -20.8193 -19.5196 -15.5420 -14.7091 -14.0850 -12.3748
   -11.8156 -11.3370  -9.3676  -2.2017   0.7663   1.0809   4.6293

     occupation numbers 
     0.0000   0.0000   0.0000   0.0000   0.0000   0.0000   0.0000   0.0000
     0.0000   0.0000   0.0000   0.0000   0.0000   0.0000   0.0000

          k = 0.1667 0.4170 0.0000 (138505 PWs)   bands (ev):

   -32.4338 -32.2427 -21.8133 -17.6478 -15.6203 -15.1303 -14.2035 -12.2257
   -11.7132 -10.9671  -9.8231  -1.3373   1.4690   2.0096   3.4393

     occupation numbers 
     1.0000   1.0000   1.0000   1.0000   1.0000   1.0000   1.0000   1.0000
     1.0000   1.0000   1.0000   0.0000   0.0000   0.0000   0.0000

          k = 0.5000 0.9943 0.0000 (138422 PWs)   bands (ev):

   -32.3111 -32.1880 -21.0190 -19.0551 -15.5835 -14.7493 -14.3991 -12.3967
   -11.7375 -11.3472  -9.6230  -1.5515   0.9488   1.2999   4.2492

     occupation numbers 
     0.0000   0.0000   0.0000   0.0000   0.0000   0.0000   0.0000   0.0000
     0.0000   0.0000   0.0000   0.0000   0.0000   0.0000   0.0000

          k = 0.1667 0.4811 0.0000 (138488 PWs)   bands (ev):

   -32.3179 -32.1849 -21.1752 -18.5087 -15.7250 -15.0759 -14.4515 -12.4257
   -11.7182 -11.2435  -9.9393  -0.9321   1.5305   1.5716   3.8158

     occupation numbers 
     1.0000   1.0000   1.0000   1.0000   1.0000   1.0000   1.0000   1.0000
     1.0000   1.0000   1.0000   0.0000   0.0000   0.0000   0.0000

          k = 0.5000 1.0585 0.0000 (138488 PWs)   bands (ev):

   -32.3179 -32.1849 -21.1752 -18.5087 -15.7250 -15.0759 -14.4515 -12.4257
   -11.7182 -11.2435  -9.9393  -0.9321   1.5305   1.5716   3.8158

     occupation numbers 
     0.0000   0.0000   0.0000   0.0000   0.0000   0.0000   0.0000   0.0000
     0.0000   0.0000   0.0000   0.0000   0.0000   0.0000   0.0000

          k = 0.1667 0.5453 0.0000 (138485 PWs)   bands (ev):

   -32.2495 -32.1596 -20.5390 -19.2771 -15.7943 -14.9465 -14.6517 -12.5268
   -11.6856 -11.4282  -9.9953  -0.6503   1.1911   1.5937   3.8962

     occupation numbers 
     1.0000   1.0000   1.0000   1.0000   1.0000   1.0000   1.0000   1.0000
     1.0000   1.0000   1.0000   0.0000   0.0000   0.0000   0.0000

          k = 0.5000 1.1226 0.0000 (138494 PWs)   bands (ev):

   -32.3222 -32.1831 -21.2569 -18.0625 -16.0126 -15.2670 -14.4117 -12.4491
   -11.7426 -11.0757 -10.1996  -0.6473   1.7745   2.5946   3.4475

     occupation numbers 
     0.0000   0.0000   0.0000   0.0000   0.0000   0.0000   0.0000   0.0000
     0.0000   0.0000   0.0000   0.0000   0.0000   0.0000   0.0000

          k = 0.2222 0.3849 0.0000 (138485 PWs)   bands (ev):

   -32.4413 -32.2456 -21.8578 -17.4021 -15.5623 -15.4154 -14.1911 -12.2107
   -11.7500 -10.8406  -9.9692  -1.1961   1.8816   2.6205   2.7462

     occupation numbers 
     1.0000   1.0000   1.0000   1.0000   1.0000   1.0000   1.0000   1.0000
     1.0000   1.0000   1.0000   0.0000   0.0000   0.0000   0.0000

          k = 0.5556 0.9623 0.0000 (138394 PWs)   bands (ev):

   -32.2725 -32.1747 -20.5613 -19.5951 -15.5708 -14.7038 -14.5185 -12.4447
   -11.7714 -11.3994  -9.6481  -1.4665   1.0644   1.0646   4.3213

     occupation numbers 
     0.0000   0.0000   0.0000   0.0000   0.0000   0.0000   0.0000   0.0000
     0.0000   0.0000   0.0000   0.0000   0.0000   0.0000   0.0000

          k = 0.2222 0.4491 0.0000 (138494 PWs)   bands (ev):

   -32.3222 -32.1831 -21.2569 -18.0625 -16.0126 -15.2670 -14.4117 -12.4491
   -11.7426 -11.0757 -10.1996  -0.6473   1.7745   2.5946   3.4475

     occupation numbers 
     1.0000   1.0000   1.0000   1.0000   1.0000   1.0000   1.0000   1.0000
     1.0000   1.0000   1.0000   0.0000   0.0000   0.0000   0.0000

          k = 0.5556 1.0264 0.0000 (138485 PWs)   bands (ev):

   -32.2495 -32.1596 -20.5390 -19.2771 -15.7943 -14.9465 -14.6517 -12.5268
   -11.6856 -11.4282  -9.9953  -0.6503   1.1911   1.5937   3.8962

     occupation numbers 
     0.0000   0.0000   0.0000   0.0000   0.0000   0.0000   0.0000   0.0000
     0.0000   0.0000   0.0000   0.0000   0.0000   0.0000   0.0000

          k = 0.2222 0.5132 0.0000 (138504 PWs)   bands (ev):

   -32.2365 -32.1487 -20.6016 -18.7983 -16.2753 -15.1046 -14.6018 -12.5990
   -11.6692 -11.3158 -10.3261  -0.1732   1.4105   2.5519   3.5166

     occupation numbers 
     1.0000   1.0000   1.0000   1.0000   1.0000   1.0000   1.0000   1.0000
     1.0000   1.0000   1.0000   0.0000   0.0000   0.0000   0.0000

          k = 0.5556 1.0906 0.0000 (138504 PWs)   bands (ev):

   -32.2365 -32.1487 -20.6016 -18.7983 -16.2753 -15.1046 -14.6018 -12.5990
   -11.6692 -11.3158 -10.3261  -0.1732   1.4105   2.5519   3.5166

     occupation numbers 
     0.0000   0.0000   0.0000   0.0000   0.0000   0.0000   0.0000   0.0000
     0.0000   0.0000   0.0000   0.0000   0.0000   0.0000   0.0000

          k = 0.2222 0.5774 0.0000 (138486 PWs)   bands (ev):

   -32.2025 -32.1407 -20.1460 -19.2901 -16.3586 -15.0081 -14.7061 -12.6492
   -11.5554 -11.4915 -10.3658   0.0691   1.1821   2.5409   3.4936

     occupation numbers 
     1.0000   1.0000   1.0000   1.0000   1.0000   1.0000   1.0000   1.0000
     1.0000   1.0000   1.0000   0.0000   0.0000   0.0000   0.0000

          k = 0.5556 1.1547 0.0000 (138528 PWs)   bands (ev):

   -32.2323 -32.1446 -20.6301 -18.5368 -16.5614 -15.1333 -14.5789 -12.6291
   -11.6794 -11.2107 -10.4925  -0.0497   1.5267   3.2781   3.8144

     occupation numbers 
     0.0000   0.0000   0.0000   0.0000   0.0000   0.0000   0.0000   0.0000
     0.0000   0.0000   0.0000   0.0000   0.0000   0.0000   0.0000

          k = 0.2778 0.4811 0.0000 (138528 PWs)   bands (ev):

   -32.2323 -32.1446 -20.6301 -18.5368 -16.5614 -15.1333 -14.5789 -12.6291
   -11.6794 -11.2107 -10.4925  -0.0497   1.5267   3.2781   3.8144

     occupation numbers 
     1.0000   1.0000   1.0000   1.0000   1.0000   1.0000   1.0000   1.0000
     1.0000   1.0000   1.0000   0.0000   0.0000   0.0000   0.0000

          k = 0.6111 1.0585 0.0000 (138486 PWs)   bands (ev):

   -32.2025 -32.1407 -20.1460 -19.2901 -16.3586 -15.0081 -14.7061 -12.6492
   -11.5554 -11.4915 -10.3658   0.0691   1.1821   2.5409   3.4936

     occupation numbers 
     0.0000   0.0000   0.0000   0.0000   0.0000   0.0000   0.0000   0.0000
     0.0000   0.0000   0.0000   0.0000   0.0000   0.0000   0.0000

          k = 0.2778 0.5453 0.0000 (138511 PWs)   bands (ev):

   -32.1759 -32.1324 -20.0021 -19.0819 -16.8693 -14.9875 -14.7233 -12.7252
   -11.5502 -11.3755 -10.6493   0.4269   1.2049   3.2085   3.7163

     occupation numbers 
     1.0000   1.0000   1.0000   1.0000   1.0000   1.0000   1.0000   1.0000
     1.0000   1.0000   1.0000   0.0000   0.0000   0.0000   0.0000

          k = 0.6111 1.1226 0.0000 (138511 PWs)   bands (ev):

   -32.1759 -32.1324 -20.0021 -19.0819 -16.8693 -14.9875 -14.7233 -12.7252
   -11.5502 -11.3755 -10.6493   0.4269   1.2049   3.2085   3.7163

     occupation numbers 
     0.0000   0.0000   0.0000   0.0000   0.0000   0.0000   0.0000   0.0000
     0.0000   0.0000   0.0000   0.0000   0.0000   0.0000   0.0000

          k = 0.3333 0.5774 0.0000 (138474 PWs)   bands (ev):

   -32.1407 -32.1407 -19.4663 -19.4663 -17.1249 -14.8513 -14.8513 -12.7712
   -11.4353 -11.4353 -10.7958   0.8845   0.8845   3.0902   4.5548

     occupation numbers 
     1.0000   1.0000   1.0000   1.0000   1.0000   1.0000   1.0000   1.0000
     1.0000   1.0000   1.0000   0.0000   0.0000   0.0000   0.0000

          k = 0.6667 1.1547 0.0000 (138474 PWs)   bands (ev):

   -32.1407 -32.1407 -19.4663 -19.4663 -17.1249 -14.8513 -14.8513 -12.7712
   -11.4353 -11.4353 -10.7958   0.8845   0.8845   3.0902   4.5548

     occupation numbers 
     0.0000   0.0000   0.0000   0.0000   0.0000   0.0000   0.0000   0.0000
     0.0000   0.0000   0.0000   0.0000   0.0000   0.0000   0.0000

          k =-0.0556-0.0962 0.0000 (138747 PWs)   bands (ev):

   -33.2531 -32.7805 -23.9781 -16.6842 -13.8476 -12.6350 -12.2461 -11.0038
   -10.9055  -8.4506  -8.1123  -4.2765  -0.4186  -0.0153   0.0696

     occupation numbers 
     1.0000   1.0000   1.0000   1.0000   1.0000   1.0000   1.0000   1.0000
     1.0000   1.0000   1.0000   0.0000   0.0000   0.0000   0.0000

          k = 0.2778 0.4811 0.0000 (138528 PWs)   bands (ev):

   -32.2323 -32.1446 -20.6301 -18.5368 -16.5614 -15.1333 -14.5789 -12.6291
   -11.6794 -11.2107 -10.4925  -0.0497   1.5267   3.2781   3.8144

     occupation numbers 
     0.0000   0.0000   0.0000   0.0000   0.0000   0.0000   0.0000   0.0000
     0.0000   0.0000   0.0000   0.0000   0.0000   0.0000   0.0000

          k =-0.0556-0.1604 0.0000 (138708 PWs)   bands (ev):

   -33.1519 -32.7089 -23.7887 -16.5938 -13.9573 -13.3078 -12.5074 -11.1759
   -10.9743  -9.0037  -8.3617  -3.8324  -0.2892   0.3994   0.4850

     occupation numbers 
     1.0000   1.0000   1.0000   1.0000   1.0000   1.0000   1.0000   1.0000
     1.0000   1.0000   1.0000   0.0000   0.0000   0.0000   0.0000

          k = 0.2778 0.4170 0.0000 (138494 PWs)   bands (ev):

   -32.3222 -32.1831 -21.2569 -18.0625 -16.0126 -15.2670 -14.4117 -12.4491
   -11.7426 -11.0757 -10.1996  -0.6473   1.7745   2.5946   3.4475

     occupation numbers 
     0.0000   0.0000   0.0000   0.0000   0.0000   0.0000   0.0000   0.0000
     0.0000   0.0000   0.0000   0.0000   0.0000   0.0000   0.0000

          k =-0.0556-0.2245 0.0000 (138662 PWs)   bands (ev):

   -33.0115 -32.6114 -23.5052 -16.4853 -14.3471 -13.9370 -12.8317 -11.4141
   -11.0596  -9.6373  -8.6280  -3.3741  -0.1546   0.8863   1.1417

     occupation numbers 
     1.0000   1.0000   1.0000   1.0000   1.0000   1.0000   1.0000   1.0000
     1.0000   1.0000   1.0000   0.0000   0.0000   0.0000   0.0000

          k = 0.2778 0.3528 0.0000 (138505 PWs)   bands (ev):

   -32.4338 -32.2427 -21.8133 -17.6478 -15.6203 -15.1303 -14.2035 -12.2257
   -11.7132 -10.9671  -9.8231  -1.3373   1.4690   2.0096   3.4393

     occupation numbers 
     0.0000   0.0000   0.0000   0.0000   0.0000   0.0000   0.0000   0.0000
     0.0000   0.0000   0.0000   0.0000   0.0000   0.0000   0.0000

          k =-0.0556-0.2887 0.0000 (138649 PWs)   bands (ev):

   -32.8457 -32.4993 -23.1282 -16.4429 -15.1964 -14.1683 -13.1720 -11.6757
   -11.1594 -10.2590  -8.8679  -2.9816   0.0109   1.4782   1.8938

     occupation numbers 
     1.0000   1.0000   1.0000   1.0000   1.0000   1.0000   1.0000   1.0000
     1.0000   1.0000   1.0000   0.0000   0.0000   0.0000   0.0000

          k = 0.2778 0.2887 0.0000 (138553 PWs)   bands (ev):

   -32.5547 -32.3141 -22.2823 -17.2390 -15.6628 -14.6555 -13.8864 -12.0409
   -11.5454 -10.8800  -9.4206  -2.0691   0.7076   2.0472   3.2644

     occupation numbers 
     0.0000   0.0000   0.0000   0.0000   0.0000   0.0000   0.0000   0.0000
     0.0000   0.0000   0.0000   0.0000   0.0000   0.0000   0.0000

          k =-0.0556-0.3528 0.0000 (138564 PWs)   bands (ev):

   -32.6718 -32.3869 -22.6586 -16.8425 -15.6930 -14.3579 -13.4934 -11.9236
   -11.2767 -10.7942  -9.0653  -2.6786   0.2070   1.9486   2.7388

     occupation numbers 
     1.0000   1.0000   1.0000   1.0000   1.0000   1.0000   1.0000   1.0000
     1.0000   1.0000   1.0000   0.0000   0.0000   0.0000   0.0000

          k = 0.2778 0.2245 0.0000 (138564 PWs)   bands (ev):

   -32.6718 -32.3869 -22.6586 -16.8425 -15.6930 -14.3579 -13.4934 -11.9236
   -11.2767 -10.7942  -9.0653  -2.6786   0.2070   1.9486   2.7388

     occupation numbers 
     0.0000   0.0000   0.0000   0.0000   0.0000   0.0000   0.0000   0.0000
     0.0000   0.0000   0.0000   0.0000   0.0000   0.0000   0.0000

          k =-0.0556-0.4170 0.0000 (138494 PWs)   bands (ev):

   -32.5097 -32.2898 -22.0987 -17.7463 -15.6888 -14.5246 -13.7690 -12.1340
   -11.4518 -11.1478  -9.2155  -2.4534   0.4079   1.8166   3.6978

     occupation numbers 
     1.0000   1.0000   1.0000   1.0000   1.0000   1.0000   1.0000   1.0000
     1.0000   1.0000   1.0000   0.0000   0.0000   0.0000   0.0000

          k = 0.2778 0.1604 0.0000 (138614 PWs)   bands (ev):

   -32.7724 -32.4514 -22.9405 -16.5529 -15.5550 -14.2036 -13.2292 -11.8161
   -11.1177 -10.5940  -8.8607  -2.9861  -0.0349   1.7106   2.2643

     occupation numbers 
     0.0000   0.0000   0.0000   0.0000   0.0000   0.0000   0.0000   0.0000
     0.0000   0.0000   0.0000   0.0000   0.0000   0.0000   0.0000

          k =-0.0556-0.4811 0.0000 (138498 PWs)   bands (ev):

   -32.3802 -32.2222 -21.4599 -18.7046 -15.6004 -14.6464 -13.9740 -12.2901
   -11.6787 -11.2878  -9.3167  -2.2920   0.5934   1.4148   4.4077

     occupation numbers 
     1.0000   1.0000   1.0000   1.0000   1.0000   1.0000   1.0000   1.0000
     1.0000   1.0000   1.0000   0.0000   0.0000   0.0000   0.0000

          k = 0.2778 0.0962 0.0000 (138649 PWs)   bands (ev):

   -32.8457 -32.4993 -23.1282 -16.4429 -15.1964 -14.1683 -13.1720 -11.6757
   -11.1594 -10.2590  -8.8679  -2.9816   0.0109   1.4782   1.8938

     occupation numbers 
     0.0000   0.0000   0.0000   0.0000   0.0000   0.0000   0.0000   0.0000
     0.0000   0.0000   0.0000   0.0000   0.0000   0.0000   0.0000

          k =-0.0556-0.5453 0.0000 (138420 PWs)   bands (ev):

   -32.3047 -32.1910 -20.8193 -19.5196 -15.5420 -14.7091 -14.0850 -12.3748
   -11.8156 -11.3370  -9.3676  -2.2017   0.7663   1.0809   4.6293

     occupation numbers 
     1.0000   1.0000   1.0000   1.0000   1.0000   1.0000   1.0000   1.0000
     1.0000   1.0000   1.0000   0.0000   0.0000   0.0000   0.0000

          k = 0.2778 0.0321 0.0000 (138628 PWs)   bands (ev):

   -32.8844 -32.5248 -23.2220 -16.4227 -14.7925 -14.2801 -13.2158 -11.5089
   -11.2903  -9.9781  -8.9915  -2.8783   0.3190   1.3395   1.4828

     occupation numbers 
     0.0000   0.0000   0.0000   0.0000   0.0000   0.0000   0.0000   0.0000
     0.0000   0.0000   0.0000   0.0000   0.0000   0.0000   0.0000

          k =-0.1111-0.1925 0.0000 (138689 PWs)   bands (ev):

   -33.0338 -32.6267 -23.5523 -16.4992 -14.1002 -13.9852 -12.8458 -11.3053
   -11.1273  -9.4712  -8.6819  -3.3682   0.0313   0.7975   0.8419

     occupation numbers 
     1.0000   1.0000   1.0000   1.0000   1.0000   1.0000   1.0000   1.0000
     1.0000   1.0000   1.0000   0.0000   0.0000   0.0000   0.0000

          k = 0.2222 0.3849 0.0000 (138485 PWs)   bands (ev):

[...]
        k(   66) = (   0.5555556   0.6666667   0.0000000), wk =   0.0000000
        k(   67) = (   0.2222222   0.3888889   0.0000000), wk =   0.0185185
        k(   68) = (   0.5555556   0.7222222   0.0000000), wk =   0.0000000
        k(   69) = (   0.2777778   0.2777778   0.0000000), wk =   0.0185185
        k(   70) = (   0.6111111   0.6111111   0.0000000), wk =   0.0000000
        k(   71) = (   0.2777778   0.3333333   0.0000000), wk =   0.0370370
        k(   72) = (   0.6111111   0.6666667   0.0000000), wk =   0.0000000
        k(   73) = (   0.3333333   0.3333333   0.0000000), wk =   0.0061728
        k(   74) = (   0.6666667   0.6666667   0.0000000), wk =   0.0000000
        k(   75) = (  -0.0555556  -0.0555556   0.0000000), wk =   0.0185185
        k(   76) = (   0.2777778   0.2777778   0.0000000), wk =   0.0000000
        k(   77) = (  -0.0555556  -0.1111111   0.0000000), wk =   0.0370370
        k(   78) = (   0.2777778   0.2222222   0.0000000), wk =   0.0000000
        k(   79) = (  -0.0555556  -0.1666667   0.0000000), wk =   0.0370370
        k(   80) = (   0.2777778   0.1666667   0.0000000), wk =   0.0000000
        k(   81) = (  -0.0555556  -0.2222222   0.0000000), wk =   0.0370370
        k(   82) = (   0.2777778   0.1111111   0.0000000), wk =   0.0000000
        k(   83) = (  -0.0555556  -0.2777778   0.0000000), wk =   0.0370370
        k(   84) = (   0.2777778   0.0555556   0.0000000), wk =   0.0000000
        k(   85) = (  -0.0555556  -0.3333333   0.0000000), wk =   0.0370370
        k(   86) = (   0.2777778   0.0000000   0.0000000), wk =   0.0000000
        k(   87) = (  -0.0555556  -0.3888889   0.0000000), wk =   0.0370370
        k(   88) = (   0.2777778  -0.0555556   0.0000000), wk =   0.0000000
        k(   89) = (  -0.0555556  -0.4444444   0.0000000), wk =   0.0370370
        k(   90) = (   0.2777778  -0.1111111   0.0000000), wk =   0.0000000
        k(   91) = (  -0.1111111  -0.1111111   0.0000000), wk =   0.0185185
        k(   92) = (   0.2222222   0.2222222   0.0000000), wk =   0.0000000
        k(   93) = (  -0.1111111  -0.1666667   0.0000000), wk =   0.0370370
        k(   94) = (   0.2222222   0.1666667   0.0000000), wk =   0.0000000
        k(   95) = (  -0.1111111  -0.2222222   0.0000000), wk =   0.0370370
        k(   96) = (   0.2222222   0.1111111   0.0000000), wk =   0.0000000
        k(   97) = (  -0.1111111  -0.2777778   0.0000000), wk =   0.0370370
        k(   98) = (   0.2222222   0.0555556   0.0000000), wk =   0.0000000
        k(   99) = (  -0.1111111  -0.3333333   0.0000000), wk =   0.0370370
        k(  100) = (   0.2222222   0.0000000   0.0000000), wk =   0.0000000
        k(  101) = (  -0.1111111  -0.3888889   0.0000000), wk =   0.0370370
        k(  102) = (   0.2222222  -0.0555556   0.0000000), wk =   0.0000000
        k(  103) = (  -0.1111111  -0.4444444   0.0000000), wk =   0.0185185
        k(  104) = (   0.2222222  -0.1111111   0.0000000), wk =   0.0000000
        k(  105) = (  -0.1666667  -0.1666667   0.0000000), wk =   0.0185185
        k(  106) = (   0.1666667   0.1666667   0.0000000), wk =   0.0000000
        k(  107) = (  -0.1666667  -0.2222222   0.0000000), wk =   0.0370370
        k(  108) = (   0.1666667   0.1111111   0.0000000), wk =   0.0000000
        k(  109) = (  -0.1666667  -0.2777778   0.0000000), wk =   0.0370370
        k(  110) = (   0.1666667   0.0555556   0.0000000), wk =   0.0000000
        k(  111) = (  -0.1666667  -0.3333333   0.0000000), wk =   0.0370370
        k(  112) = (   0.1666667   0.0000000   0.0000000), wk =   0.0000000
        k(  113) = (  -0.1666667  -0.3888889   0.0000000), wk =   0.0370370
        k(  114) = (   0.1666667  -0.0555556   0.0000000), wk =   0.0000000
        k(  115) = (  -0.2222222  -0.2222222   0.0000000), wk =   0.0185185
        k(  116) = (   0.1111111   0.1111111   0.0000000), wk =   0.0000000
        k(  117) = (  -0.2222222  -0.2777778   0.0000000), wk =   0.0370370
        k(  118) = (   0.1111111   0.0555556   0.0000000), wk =   0.0000000
        k(  119) = (  -0.2222222  -0.3333333   0.0000000), wk =   0.0370370
        k(  120) = (   0.1111111  -0.0000000   0.0000000), wk =   0.0000000
        k(  121) = (  -0.2222222  -0.3888889   0.0000000), wk =   0.0185185
        k(  122) = (   0.1111111  -0.0555556   0.0000000), wk =   0.0000000
        k(  123) = (  -0.2777778  -0.2777778   0.0000000), wk =   0.0185185
        k(  124) = (   0.0555556   0.0555556   0.0000000), wk =   0.0000000
        k(  125) = (  -0.2777778  -0.3333333   0.0000000), wk =   0.0370370
        k(  126) = (   0.0555556  -0.0000000   0.0000000), wk =   0.0000000
        k(  127) = (  -0.3333333  -0.3333333   0.0000000), wk =   0.0061728
        k(  128) = (  -0.0000000   0.0000000   0.0000000), wk =   0.0000000

     PseudoPot. # 1 for C  read from file:
     ../pseudo/c_pbe_v1.2.uspp.F.UPF
     MD5 check sum: d1aef80898a10debaa0f26306b886e00
     Pseudo is Ultrasoft + core correction, Zval =  4.0
     Generated by new atomic code, or converted to UPF format
     Using radial grid of  721 points,  4 beta functions with: 
                l(1) =   0
                l(2) =   0
                l(3) =   1
                l(4) =   1
     Q(r) pseudized with  8 coefficients,  rinner =    1.100   1.100   1.100


     PseudoPot. # 2 for F  read from file:
     ../pseudo/f_pbe_v1.4.uspp.F.UPF
     MD5 check sum: 4c38b6a325caf53ec0e86aed9459de46
     Pseudo is Ultrasoft, Zval =  7.0
     Generated by new atomic code, or converted to UPF format
     Using radial grid of  799 points,  4 beta functions with: 
                l(1) =   0
                l(2) =   0
                l(3) =   1
                l(4) =   1
     Q(r) pseudized with  8 coefficients,  rinner =    0.950   0.950   0.950



     Atomic displacements:
     There are    8 irreducible representations

     Representation     1      1 modes -  Not done in this run
     Irreps are as follows:

                     mode #   1
                     (  -0.00000  -0.00000   ) 
                     (  -0.00000  -0.00000   ) 
                     (  -0.00000  -0.00000   ) 
                     (  -0.00000  -0.00000   ) 
                     (  -0.00000  -0.00000   ) 
                     (  -0.00000  -0.00000   ) 
                     (  -0.50000  -0.00000   ) 
                     (   0.00000   0.50000   ) 
                     (  -0.00000  -0.00000   ) 
                     (  -0.25000   0.43301   ) 
                     (  -0.43301  -0.25000   ) 
                     (  -0.00000  -0.00000   ) 

     Representation     2      1 modes -  Not done in this run
     Irreps are as follows:

                     mode #   2
                     (  -0.00000  -0.00000   ) 
                     (  -0.00000  -0.00000   ) 
                     (  -0.00000  -0.00000   ) 
                     (  -0.00000  -0.00000   ) 
                     (  -0.00000  -0.00000   ) 
                     (  -0.00000  -0.00000   ) 
                     (  -0.50000  -0.00000   ) 
                     (  -0.00000   0.50000   ) 
                     (  -0.00000   0.00000   ) 
                     (   0.25000  -0.43301   ) 
                     (   0.43301   0.25000   ) 
                     (   0.00000  -0.00000   ) 

     Representation     3      1 modes -  Not done in this run
     Irreps are as follows:

                     mode #   3
                     (  -0.50000  -0.00000   ) 
                     (   0.00000   0.50000   ) 
                     (   0.00000  -0.00000   ) 
                     (  -0.25000   0.43301   ) 
                     (  -0.43301  -0.25000   ) 
                     (   0.00000  -0.00000   ) 
                     (   0.00000  -0.00000   ) 
                     (   0.00000  -0.00000   ) 
                     (   0.00000  -0.00000   ) 
                     (   0.00000  -0.00000   ) 
                     (   0.00000  -0.00000   ) 
                     (   0.00000  -0.00000   ) 

     Representation     4      2 modes -  Not done in this run
     Irreps are as follows:

           mode #   4                           mode #   5
           (  -0.08089   0.00000   )            (  -0.08089  -0.00000   ) 
           (  -0.00000  -0.08089   )            (  -0.00000  -0.08089   ) 
           (  -0.69686   0.03610   )            (   0.69686  -0.03610   ) 
           (  -0.04044  -0.07005   )            (   0.04044   0.07005   ) 
           (  -0.07005   0.04044   )            (   0.07005  -0.04044   ) 
           (  -0.69686   0.03610   )            (  -0.69686   0.03610   ) 
           (   0.00000  -0.00000   )            (  -0.00000  -0.00000   ) 
           (   0.00000  -0.00000   )            (  -0.00000  -0.00000   ) 
           (   0.00000  -0.00000   )            (  -0.00000  -0.00000   ) 
           (   0.00000  -0.00000   )            (  -0.00000  -0.00000   ) 
           (   0.00000  -0.00000   )            (  -0.00000  -0.00000   ) 
           (   0.00000  -0.00000   )            (  -0.00000  -0.00000   ) 

     Representation     5      2 modes -  To be done
     Irreps are as follows:

           mode #   6                           mode #   7
           (  -0.00000  -0.00000   )            (   0.00000  -0.00000   ) 
           (  -0.00000  -0.00000   )            (   0.00000  -0.00000   ) 
           (  -0.00000  -0.00000   )            (   0.00000  -0.00000   ) 
           (  -0.00000  -0.00000   )            (   0.00000  -0.00000   ) 
           (  -0.00000  -0.00000   )            (   0.00000  -0.00000   ) 
           (  -0.00000  -0.00000   )            (   0.00000  -0.00000   ) 
           (  -0.10942  -0.00000   )            (  -0.10942  -0.00000   ) 
           (   0.00000  -0.10942   )            (   0.00000  -0.10942   ) 
           (   0.64604  -0.24226   )            (  -0.64603   0.24226   ) 
           (  -0.05471  -0.09476   )            (   0.05471   0.09476   ) 
           (  -0.09476   0.05471   )            (   0.09476  -0.05471   ) 
           (   0.64603  -0.24226   )            (   0.64604  -0.24226   ) 

     Representation     6      2 modes -  Not done in this run
     Irreps are as follows:

           mode #   8                           mode #   9
           (  -0.00000  -0.00000   )            (  -0.00000  -0.00000   ) 
           (  -0.00000  -0.00000   )            (  -0.00000  -0.00000   ) 
           (  -0.00000  -0.00000   )            (  -0.00000  -0.00000   ) 
           (  -0.00000  -0.00000   )            (  -0.00000  -0.00000   ) 
           (  -0.00000  -0.00000   )            (  -0.00000  -0.00000   ) 
           (  -0.00000  -0.00000   )            (  -0.00000  -0.00000   ) 
           (  -0.48788  -0.00000   )            (  -0.48788  -0.00000   ) 
           (  -0.00000  -0.48788   )            (   0.00000  -0.48788   ) 
           (  -0.14489   0.05433   )            (   0.14489  -0.05433   ) 
           (  -0.24394  -0.42252   )            (   0.24394   0.42252   ) 
           (  -0.42252   0.24394   )            (   0.42252  -0.24394   ) 
           (  -0.14489   0.05433   )            (  -0.14489   0.05433   ) 

     Representation     7      1 modes -  Not done in this run
     Irreps are as follows:

                     mode #  10
                     (  -0.50000  -0.00000   ) 
                     (  -0.00000   0.50000   ) 
                     (  -0.00000   0.00000   ) 
                     (   0.25000  -0.43301   ) 
                     (   0.43301   0.25000   ) 
                     (   0.00000  -0.00000   ) 
                     (  -0.00000  -0.00000   ) 
                     (  -0.00000  -0.00000   ) 
                     (  -0.00000  -0.00000   ) 
                     (  -0.00000  -0.00000   ) 
                     (  -0.00000  -0.00000   ) 
                     (  -0.00000  -0.00000   ) 

     Representation     8      2 modes -  Not done in this run
     Irreps are as follows:

           mode #  11                           mode #  12
           (  -0.49342   0.00000   )            (  -0.49341  -0.00000   ) 
           (   0.00000  -0.49342   )            (  -0.00000  -0.49341   ) 
           (  -0.11424   0.00592   )            (   0.11424  -0.00592   ) 
           (   0.24671   0.42731   )            (  -0.24671  -0.42731   ) 
           (   0.42731  -0.24671   )            (  -0.42731   0.24671   ) 
           (   0.11424  -0.00592   )            (   0.11424  -0.00592   ) 
           (  -0.00000  -0.00000   )            (   0.00000  -0.00000   ) 
           (  -0.00000  -0.00000   )            (   0.00000  -0.00000   ) 
           (  -0.00000  -0.00000   )            (   0.00000  -0.00000   ) 
           (  -0.00000  -0.00000   )            (   0.00000  -0.00000   ) 
           (  -0.00000  -0.00000   )            (   0.00000  -0.00000   ) 
           (  -0.00000  -0.00000   )            (   0.00000  -0.00000   ) 

     Compute atoms:     3,    4,


     PHONON       :  28m19.53s CPU  53m23.97s WALL



     Representation #   5 modes #   6   7

     Self-consistent Calculation

      iter #   1 total cpu time :  3919.0 secs   av.it.:   7.0
      thresh= 1.000E-02 alpha_mix =  0.700 |ddv_scf|^2 =  2.629E-08

      iter #   2 total cpu time :  5330.6 secs   av.it.:  14.9
      thresh= 1.622E-05 alpha_mix =  0.700 |ddv_scf|^2 =  8.795E-09

      iter #   3 total cpu time :  6686.8 secs   av.it.:  14.7
      thresh= 9.378E-06 alpha_mix =  0.700 |ddv_scf|^2 =  9.695E-10

      iter #   4 total cpu time :  8103.0 secs   av.it.:  14.8
      thresh= 3.114E-06 alpha_mix =  0.700 |ddv_scf|^2 =  5.569E-11

      iter #   5 total cpu time :  9505.2 secs   av.it.:  14.9
      thresh= 7.462E-07 alpha_mix =  0.700 |ddv_scf|^2 =  4.171E-12

      iter #   6 total cpu time : 10905.3 secs   av.it.:  14.8
      thresh= 2.042E-07 alpha_mix =  0.700 |ddv_scf|^2 =  1.828E-13

     End of self-consistent calculation

     Convergence has been achieved 

     Not diagonalizing because representation    0 is not done

     init_run     :      1.41s CPU      1.72s WALL (       1 calls)
     electrons    :   1062.15s CPU   1868.49s WALL (       1 calls)

     Called by init_run:
     wfcinit      :      0.00s CPU      0.02s WALL (       1 calls)
     wfcinit:atom :      0.29s CPU      0.38s WALL (     128 calls)
     wfcinit:wfcr :     34.81s CPU     55.31s WALL (     128 calls)
     potinit      :      0.22s CPU      0.26s WALL (       1 calls)
     hinit0       :      0.42s CPU      0.43s WALL (       1 calls)

     Called by electrons:
     c_bands      :   1062.11s CPU   1868.41s WALL (       1 calls)
     v_of_rho     :      0.32s CPU      0.37s WALL (       2 calls)
     v_h          :      0.03s CPU      0.03s WALL (       2 calls)
     v_xc         :      0.29s CPU      0.34s WALL (       2 calls)
     newd         :      0.53s CPU      0.96s WALL (       2 calls)

     Called by c_bands:
     init_us_2    :      3.06s CPU      5.63s WALL (     832 calls)
     init_us_2:cp :      3.06s CPU      5.62s WALL (     832 calls)
     cegterg      :   1016.75s CPU   1791.10s WALL (     248 calls)

     Called by sum_band:

     Called by *egterg:
     cdiaghg      :     52.56s CPU    120.89s WALL (    3590 calls)
     cegterg:over :    317.55s CPU    601.55s WALL (    3462 calls)
     cegterg:upda :     21.85s CPU     36.00s WALL (    3462 calls)
     cegterg:last :     13.51s CPU     16.77s WALL (     628 calls)
     h_psi        :   2285.00s CPU   3741.91s WALL (   18342 calls)
     s_psi        :    141.01s CPU    273.19s WALL (   33614 calls)
     g_psi        :      0.91s CPU      1.29s WALL (    3462 calls)

     Called by h_psi:
     h_psi:calbec :    375.43s CPU    994.85s WALL (   18342 calls)
     vloc_psi     :   1834.18s CPU   2612.18s WALL (   18342 calls)
     add_vuspsi   :     70.80s CPU    126.45s WALL (   18342 calls)

     General routines
     calbec       :    975.08s CPU   2159.05s WALL (   36174 calls)
     fft          :      2.80s CPU      3.96s WALL (     250 calls)
     ffts         :      7.60s CPU     12.21s WALL (     152 calls)
     fftw         :   2338.69s CPU   3541.30s WALL (  336236 calls)
     davcio       :      2.82s CPU     36.77s WALL (    3823 calls)

     Parallel routines

     PHONON       :      1h39m CPU      3h 2m WALL

     INITIALIZATION: 
     phq_setup    :      0.31s CPU      0.39s WALL (       1 calls)
     phq_init     :    633.27s CPU   1276.46s WALL (       1 calls)

     phq_init     :    633.27s CPU   1276.46s WALL (       1 calls)
     set_drhoc    :      0.47s CPU      0.47s WALL (       1 calls)
     init_vloc    :      0.40s CPU      0.40s WALL (       2 calls)
     init_us_1    :      0.11s CPU      0.12s WALL (       2 calls)
     init_us_2    :      3.06s CPU      5.63s WALL (     832 calls)
     newd         :      0.53s CPU      0.96s WALL (       2 calls)
     dvanqq       :      4.00s CPU      4.01s WALL (       1 calls)
     drho         :    611.16s CPU   1232.78s WALL (       1 calls)

     DYNAMICAL MATRIX:
     phqscf       :   4268.75s CPU   7760.53s WALL (       1 calls)
     dynmatrix    :      0.07s CPU      1.21s WALL (       1 calls)

     phqscf       :   4268.75s CPU   7760.53s WALL (       1 calls)
     solve_linter :   4239.62s CPU   7702.34s WALL (       1 calls)
     drhodv       :     29.13s CPU     58.01s WALL (       1 calls)



     phqscf       :   4268.75s CPU   7760.53s WALL (       1 calls)
     solve_linter :   4239.62s CPU   7702.34s WALL (       1 calls)

     solve_linter :   4239.62s CPU   7702.34s WALL (       1 calls)
     dvqpsi_us    :     26.23s CPU     37.87s WALL (     128 calls)
     sth_kernel   :   4203.48s CPU   7643.38s WALL (       6 calls)
     apply_dpot_b :     58.98s CPU     86.09s WALL (     640 calls)
     ortho        :     52.32s CPU    102.58s WALL (     768 calls)
     cgsolve      :   3981.55s CPU   7276.90s WALL (     768 calls)
     incdrhoscf   :     91.95s CPU    133.33s WALL (     768 calls)
     addusddens   :      5.60s CPU     10.79s WALL (      14 calls)
     dv_of_drho   :      1.01s CPU      1.30s WALL (      12 calls)
     mix_pot      :      0.26s CPU      3.08s WALL (       6 calls)
     psymdvscf    :      3.28s CPU      4.06s WALL (       6 calls)
     newdq        :      1.88s CPU      1.89s WALL (       6 calls)
     adddvscf     :     11.26s CPU     27.06s WALL (     640 calls)
     drhodvus     :      0.01s CPU      0.02s WALL (       1 calls)

     dvqpsi_us    :     26.23s CPU     37.87s WALL (     128 calls)
     dvqpsi_us_on :      3.41s CPU      8.02s WALL (     128 calls)

     cgsolve      :   3981.55s CPU   7276.90s WALL (     768 calls)
     ch_psi       :   2617.61s CPU   4552.93s WALL (   14504 calls)

     ch_psi       :   2617.61s CPU   4552.93s WALL (   14504 calls)
     h_psi        :   2285.00s CPU   3741.91s WALL (   18342 calls)
     last         :    745.57s CPU   1465.76s WALL (   14504 calls)

     h_psi        :   2285.00s CPU   3741.91s WALL (   18342 calls)
     add_vuspsi   :     70.80s CPU    126.45s WALL (   18342 calls)

     incdrhoscf   :     91.95s CPU    133.33s WALL (     768 calls)
     addusdbec    :     52.77s CPU    122.40s WALL (    1536 calls)

     drhodvus     :      0.01s CPU      0.02s WALL (       1 calls)

      General routines
     calbec       :    975.08s CPU   2159.05s WALL (   36174 calls)
     fft          :      2.80s CPU      3.96s WALL (     250 calls)
     ffts         :      7.60s CPU     12.21s WALL (     152 calls)
     fftw         :   2338.69s CPU   3541.30s WALL (  336236 calls)
     davcio       :      2.82s CPU     36.77s WALL (    3823 calls)
     write_rec    :      0.01s CPU      1.03s WALL (       7 calls)


     PHONON       :      1h39m CPU      3h 2m WALL


   This run was terminated on:  20:23:23   2Mar2024            

=------------------------------------------------------------------------------=
   JOB DONE.
=------------------------------------------------------------------------------=
