
     Program PHONON v.7.1 starts on 29Feb2024 at 21:48:53 

     This program is part of the open-source Quantum ESPRESSO suite
     for quantum simulation of materials; please cite
         "P. Giannozzi et al., J. Phys.:Condens. Matter 21 395502 (2009);
         "P. Giannozzi et al., J. Phys.:Condens. Matter 29 465901 (2017);
         "P. Giannozzi et al., J. Chem. Phys. 152 154105 (2020);
          URL http://www.quantum-espresso.org", 
     in publications or presentations arising from this work. More details at
     http://www.quantum-espresso.org/quote

     Parallel version (MPI), running on     8 processors

     MPI processes distributed on     1 nodes
     R & G space division:  proc/nbgrp/npool/nimage =       8
     49996 MiB available memory on the printing compute node when the environment starts

     Reading input from input.4.2
      Title line not specified: using 'default'.

     Reading xml data from directory:

     /home/ext_chineason_graduate_utm_my/fgc/tmp/4.2/_ph0/fgc.save/
     Message from routine qexsd_readschema :
     input info not found or not readable in xml file

     IMPORTANT: XC functional enforced from input :
     Exchange-correlation= PBE
                           (   1   4   3   4   0   0   0)
     Any further DFT definition will be discarded
     Please, verify this is what you really want


     Parallelization info
     --------------------
     sticks:   dense  smooth     PW     G-vecs:    dense   smooth      PW
     Min         416     416    116               138498   138498   20514
     Max         417     417    117               138521   138521   20529
     Sum        3331    3331    931              1108055  1108055  164141

     Using Slab Decomposition

 ----2D----2D----2D----2D----2D----2D----2D----2D----2D----2D----2D----2D
  The code is running with the 2D cutoff
  Please refer to:
  Sohier, T., Calandra, M., & Mauri, F. (2017), 
  Density functional perturbation theory for gated two-dimensional heterostructures:
  Theoretical developments and application to flexural phonons in graphene.
  Physical Review B, 96(7), 75448. https://doi.org/10.1103/PhysRevB.96.075448
 ----2D----2D----2D----2D----2D----2D----2D----2D----2D----2D----2D----2D

     negative rho (up, down):  5.457E-06 0.000E+00
     read_file_new: Wavefunctions not in collected format?!?
     read_file: Wavefunctions in collected format not available
        1 /  12 q-points for this run, from  4 to  4:
       N       xq(1)         xq(2)         xq(3) 
       1   0.000000000   0.000000000   0.000000000
       2   0.000000000   0.128300060   0.000000000
       3   0.000000000   0.256600120   0.000000000
       4   0.000000000   0.384900179   0.000000000
       5   0.000000000   0.513200239   0.000000000
       6   0.111111111   0.192450090   0.000000000
       7   0.111111111   0.320750150   0.000000000
       8   0.111111111   0.449050209   0.000000000
       9   0.111111111   0.577350269   0.000000000
      10   0.222222222   0.384900179   0.000000000
      11   0.222222222   0.513200239   0.000000000
      12   0.333333333   0.577350269   0.000000000


     Calculation of q =    0.0000000   0.3849002   0.0000000

     Bands found: reading from /home/ext_chineason_graduate_utm_my/fgc/tmp/4.2/_ph0/

     Reading xml data from directory:

     /home/ext_chineason_graduate_utm_my/fgc/tmp/4.2/_ph0/fgc.save/
     Message from routine qexsd_readschema :
     input info not found or not readable in xml file

     IMPORTANT: XC functional enforced from input :
     Exchange-correlation= PBE
                           (   1   4   3   4   0   0   0)
     Any further DFT definition will be discarded
     Please, verify this is what you really want


     Parallelization info
     --------------------
     sticks:   dense  smooth     PW     G-vecs:    dense   smooth      PW
     Min         416     416    116               138498   138498   20514
     Max         417     417    117               138521   138521   20529
     Sum        3331    3331    931              1108055  1108055  164141

     Using Slab Decomposition

 ----2D----2D----2D----2D----2D----2D----2D----2D----2D----2D----2D----2D
  The code is running with the 2D cutoff
  Please refer to:
  Sohier, T., Calandra, M., & Mauri, F. (2017), 
  Density functional perturbation theory for gated two-dimensional heterostructures:
  Theoretical developments and application to flexural phonons in graphene.
  Physical Review B, 96(7), 75448. https://doi.org/10.1103/PhysRevB.96.075448
 ----2D----2D----2D----2D----2D----2D----2D----2D----2D----2D----2D----2D

     negative rho (up, down):  5.457E-06 0.000E+00
     read_file_new: Wavefunctions not in collected format?!?
     read_file: Wavefunctions in collected format not available

     Restart in Phonon calculation

     default                                                                    

     bravais-lattice index     =            4
     lattice parameter (alat)  =       4.9233  a.u.
     unit-cell volume          =     733.8532 (a.u.)^3
     number of atoms/cell      =            4
     number of atomic types    =            2
     kinetic-energy cut-off    =     500.0000  Ry
     charge density cut-off    =    2000.0000  Ry
     convergence threshold     =      1.0E-12
     beta                      =       0.7000
     number of iterations used =            4
     Exchange-correlation= PBE
                           (   1   4   3   4   0   0   0)


     celldm(1)=    4.92325  celldm(2)=    0.00000  celldm(3)=    7.10105
     celldm(4)=    0.00000  celldm(5)=    0.00000  celldm(6)=    0.00000

     crystal axes: (cart. coord. in units of alat)
               a(1) = (  1.0000  0.0000  0.0000 )  
               a(2) = ( -0.5000  0.8660  0.0000 )  
               a(3) = (  0.0000  0.0000  7.1011 )  

     reciprocal axes: (cart. coord. in units 2 pi/alat)
               b(1) = (  1.0000  0.5774 -0.0000 )  
               b(2) = (  0.0000  1.1547  0.0000 )  
               b(3) = (  0.0000 -0.0000  0.1408 )  


     Atoms inside the unit cell: 

     Cartesian axes

     site n.  atom      mass           positions (alat units)
        1     C   12.0107   tau(    1) = (    0.50000    0.57735   -0.09384  )
        2     C   12.0107   tau(    2) = (   -0.00000    0.28868    0.09384  )
        3     F   18.9984   tau(    3) = (    0.50000    0.57735   -0.62347  )
        4     F   18.9984   tau(    4) = (   -0.00000    0.28868    0.62347  )

     Computing dynamical matrix for 
                    q = (   0.0000000   0.3849002   0.0000000 )

      2 Sym.Ops. (no q -> -q+G )

                                    s                        frac. trans.

      isym =  1     identity                                     

 cryst.   s( 1) = (     1          0          0      )
                  (     0          1          0      )
                  (     0          0          1      )

 cart.    s( 1) = (  1.0000000  0.0000000  0.0000000 )
                  (  0.0000000  1.0000000  0.0000000 )
                  (  0.0000000  0.0000000  1.0000000 )


      isym =  2     inv. 180 deg rotation - cart. axis [1,0,0]   

 cryst.   s( 2) = (    -1          0          0      )
                  (     1          1          0      )
                  (     0          0          1      )

 cart.    s( 2) = ( -1.0000000 -0.0000000  0.0000000 )
                  (  0.0000000  1.0000000  0.0000000 )
                  (  0.0000000  0.0000000  1.0000000 )


     G cutoff = 1227.9317  ( 138500 G-vectors)     FFT grid: ( 72, 72,500)

     number of k points=   342  Marzari-Vanderbilt smearing, width (Ry)=  0.0010
                       cart. coord. in units 2pi/alat
        k(    1) = (   0.0000000   0.0000000   0.0000000), wk =   0.0061728
        k(    2) = (   0.0000000   0.3849002   0.0000000), wk =   0.0000000
        k(    3) = (   0.0000000   0.0641500   0.0000000), wk =   0.0061728
        k(    4) = (   0.0000000   0.4490502   0.0000000), wk =   0.0000000
        k(    5) = (   0.0000000   0.1283001   0.0000000), wk =   0.0061728
        k(    6) = (   0.0000000   0.5132002   0.0000000), wk =   0.0000000
        k(    7) = (   0.0000000   0.1924501   0.0000000), wk =   0.0061728
        k(    8) = (   0.0000000   0.5773503   0.0000000), wk =   0.0000000
        k(    9) = (   0.0000000   0.2566001   0.0000000), wk =   0.0061728
        k(   10) = (   0.0000000   0.6415003   0.0000000), wk =   0.0000000
        k(   11) = (   0.0000000   0.3207501   0.0000000), wk =   0.0061728
        k(   12) = (   0.0000000   0.7056503   0.0000000), wk =   0.0000000
        k(   13) = (   0.0000000   0.3849002   0.0000000), wk =   0.0061728
        k(   14) = (   0.0000000   0.7698004   0.0000000), wk =   0.0000000
        k(   15) = (   0.0000000   0.4490502   0.0000000), wk =   0.0061728
        k(   16) = (   0.0000000   0.8339504   0.0000000), wk =   0.0000000
        k(   17) = (   0.0000000   0.5132002   0.0000000), wk =   0.0061728
        k(   18) = (   0.0000000   0.8981004   0.0000000), wk =   0.0000000
        k(   19) = (   0.0000000  -0.5773503   0.0000000), wk =   0.0061728
        k(   20) = (   0.0000000  -0.1924501   0.0000000), wk =   0.0000000
        k(   21) = (   0.0555556   0.0962250   0.0000000), wk =   0.0123457
        k(   22) = (   0.0555556   0.4811252   0.0000000), wk =   0.0000000
        k(   23) = (   0.0555556   0.1603751   0.0000000), wk =   0.0123457
        k(   24) = (   0.0555556   0.5452753   0.0000000), wk =   0.0000000
        k(   25) = (   0.0555556   0.2245251   0.0000000), wk =   0.0123457
        k(   26) = (   0.0555556   0.6094253   0.0000000), wk =   0.0000000
        k(   27) = (   0.0555556   0.2886751   0.0000000), wk =   0.0123457
        k(   28) = (   0.0555556   0.6735753   0.0000000), wk =   0.0000000
        k(   29) = (   0.0555556   0.3528252   0.0000000), wk =   0.0123457
        k(   30) = (   0.0555556   0.7377253   0.0000000), wk =   0.0000000
        k(   31) = (   0.0555556   0.4169752   0.0000000), wk =   0.0123457
        k(   32) = (   0.0555556   0.8018754   0.0000000), wk =   0.0000000
        k(   33) = (   0.0555556   0.4811252   0.0000000), wk =   0.0123457
        k(   34) = (   0.0555556   0.8660254   0.0000000), wk =   0.0000000
        k(   35) = (   0.0555556   0.5452753   0.0000000), wk =   0.0123457
        k(   36) = (   0.0555556   0.9301754   0.0000000), wk =   0.0000000
        k(   37) = (   0.1111111   0.1924501   0.0000000), wk =   0.0123457
        k(   38) = (   0.1111111   0.5773503   0.0000000), wk =   0.0000000
        k(   39) = (   0.1111111   0.2566001   0.0000000), wk =   0.0123457
        k(   40) = (   0.1111111   0.6415003   0.0000000), wk =   0.0000000
        k(   41) = (   0.1111111   0.3207501   0.0000000), wk =   0.0123457
        k(   42) = (   0.1111111   0.7056503   0.0000000), wk =   0.0000000
        k(   43) = (   0.1111111   0.3849002   0.0000000), wk =   0.0123457
        k(   44) = (   0.1111111   0.7698004   0.0000000), wk =   0.0000000
        k(   45) = (   0.1111111   0.4490502   0.0000000), wk =   0.0123457
        k(   46) = (   0.1111111   0.8339504   0.0000000), wk =   0.0000000
        k(   47) = (   0.1111111   0.5132002   0.0000000), wk =   0.0123457
        k(   48) = (   0.1111111   0.8981004   0.0000000), wk =   0.0000000
        k(   49) = (   0.1111111   0.5773503   0.0000000), wk =   0.0123457
        k(   50) = (   0.1111111   0.9622504   0.0000000), wk =   0.0000000
        k(   51) = (   0.1666667   0.2886751   0.0000000), wk =   0.0123457
        k(   52) = (   0.1666667   0.6735753   0.0000000), wk =   0.0000000
        k(   53) = (   0.1666667   0.3528252   0.0000000), wk =   0.0123457
        k(   54) = (   0.1666667   0.7377253   0.0000000), wk =   0.0000000
        k(   55) = (   0.1666667   0.4169752   0.0000000), wk =   0.0123457
        k(   56) = (   0.1666667   0.8018754   0.0000000), wk =   0.0000000
        k(   57) = (   0.1666667   0.4811252   0.0000000), wk =   0.0123457
        k(   58) = (   0.1666667   0.8660254   0.0000000), wk =   0.0000000
        k(   59) = (   0.1666667   0.5452753   0.0000000), wk =   0.0123457
        k(   60) = (   0.1666667   0.9301754   0.0000000), wk =   0.0000000
        k(   61) = (   0.2222222   0.3849002   0.0000000), wk =   0.0123457
        k(   62) = (   0.2222222   0.7698004   0.0000000), wk =   0.0000000
        k(   63) = (   0.2222222   0.4490502   0.0000000), wk =   0.0123457
        k(   64) = (   0.2222222   0.8339504   0.0000000), wk =   0.0000000
        k(   65) = (   0.2222222   0.5132002   0.0000000), wk =   0.0123457
        k(   66) = (   0.2222222   0.8981004   0.0000000), wk =   0.0000000
        k(   67) = (   0.2222222   0.5773503   0.0000000), wk =   0.0123457
        k(   68) = (   0.2222222   0.9622504   0.0000000), wk =   0.0000000
        k(   69) = (   0.2777778   0.4811252   0.0000000), wk =   0.0123457
        k(   70) = (   0.2777778   0.8660254   0.0000000), wk =   0.0000000
        k(   71) = (   0.2777778   0.5452753   0.0000000), wk =   0.0123457
        k(   72) = (   0.2777778   0.9301754   0.0000000), wk =   0.0000000
        k(   73) = (   0.3333333   0.5773503   0.0000000), wk =   0.0123457
        k(   74) = (   0.3333333   0.9622504   0.0000000), wk =   0.0000000
        k(   75) = (  -0.0555556  -0.0320750   0.0000000), wk =   0.0123457
        k(   76) = (  -0.0555556   0.3528252   0.0000000), wk =   0.0000000
        k(   77) = (  -0.0555556   0.0320750   0.0000000), wk =   0.0123457
        k(   78) = (  -0.0555556   0.4169752   0.0000000), wk =   0.0000000
        k(   79) = (   0.0000000  -0.0641500   0.0000000), wk =   0.0061728
        k(   80) = (   0.0000000   0.3207501   0.0000000), wk =   0.0000000
        k(   81) = (  -0.1111111  -0.0641500   0.0000000), wk =   0.0123457
        k(   82) = (  -0.1111111   0.3207501   0.0000000), wk =   0.0000000
        k(   83) = (  -0.1111111   0.0641500   0.0000000), wk =   0.0123457
        k(   84) = (  -0.1111111   0.4490502   0.0000000), wk =   0.0000000
        k(   85) = (   0.0000000  -0.1283001   0.0000000), wk =   0.0061728
        k(   86) = (   0.0000000   0.2566001   0.0000000), wk =   0.0000000
        k(   87) = (  -0.1666667  -0.0962250   0.0000000), wk =   0.0123457
        k(   88) = (  -0.1666667   0.2886751   0.0000000), wk =   0.0000000
        k(   89) = (  -0.1666667   0.0962250   0.0000000), wk =   0.0123457
        k(   90) = (  -0.1666667   0.4811252   0.0000000), wk =   0.0000000
        k(   91) = (   0.0000000  -0.1924501   0.0000000), wk =   0.0061728
        k(   92) = (   0.0000000   0.1924501   0.0000000), wk =   0.0000000
        k(   93) = (  -0.2222222  -0.1283001   0.0000000), wk =   0.0123457
        k(   94) = (  -0.2222222   0.2566001   0.0000000), wk =   0.0000000
        k(   95) = (  -0.2222222   0.1283001   0.0000000), wk =   0.0123457
        k(   96) = (  -0.2222222   0.5132002   0.0000000), wk =   0.0000000
        k(   97) = (   0.0000000  -0.2566001   0.0000000), wk =   0.0061728
        k(   98) = (   0.0000000   0.1283001   0.0000000), wk =   0.0000000
        k(   99) = (  -0.2777778  -0.1603751   0.0000000), wk =   0.0123457
        k(  100) = (  -0.2777778   0.2245251   0.0000000), wk =   0.0000000
        k(  101) = (  -0.2777778   0.1603751   0.0000000), wk =   0.0123457
        k(  102) = (  -0.2777778   0.5452753   0.0000000), wk =   0.0000000
        k(  103) = (   0.0000000  -0.3207501   0.0000000), wk =   0.0061728
        k(  104) = (   0.0000000   0.0641500   0.0000000), wk =   0.0000000
        k(  105) = (  -0.3333333  -0.1924501   0.0000000), wk =   0.0123457
        k(  106) = (  -0.3333333   0.1924501   0.0000000), wk =   0.0000000
        k(  107) = (  -0.3333333   0.1924501   0.0000000), wk =   0.0123457
        k(  108) = (  -0.3333333   0.5773503   0.0000000), wk =   0.0000000
        k(  109) = (   0.0000000  -0.3849002   0.0000000), wk =   0.0061728
        k(  110) = (   0.0000000   0.0000000   0.0000000), wk =   0.0000000
        k(  111) = (  -0.3888889  -0.2245251   0.0000000), wk =   0.0123457
        k(  112) = (  -0.3888889   0.1603751   0.0000000), wk =   0.0000000
        k(  113) = (  -0.3888889   0.2245251   0.0000000), wk =   0.0123457
        k(  114) = (  -0.3888889   0.6094253   0.0000000), wk =   0.0000000
        k(  115) = (   0.0000000  -0.4490502   0.0000000), wk =   0.0061728
        k(  116) = (   0.0000000  -0.0641500   0.0000000), wk =   0.0000000
        k(  117) = (  -0.4444444  -0.2566001   0.0000000), wk =   0.0123457
        k(  118) = (  -0.4444444   0.1283001   0.0000000), wk =   0.0000000
        k(  119) = (  -0.4444444   0.2566001   0.0000000), wk =   0.0123457
        k(  120) = (  -0.4444444   0.6415003   0.0000000), wk =   0.0000000
        k(  121) = (   0.0000000  -0.5132002   0.0000000), wk =   0.0061728
        k(  122) = (   0.0000000  -0.1283001   0.0000000), wk =   0.0000000
        k(  123) = (   0.5000000   0.2886751   0.0000000), wk =   0.0123457
        k(  124) = (   0.5000000   0.6735753   0.0000000), wk =   0.0000000
        k(  125) = (  -0.1111111  -0.0000000   0.0000000), wk =   0.0123457
        k(  126) = (  -0.1111111   0.3849002   0.0000000), wk =   0.0000000
        k(  127) = (   0.0555556  -0.0962250   0.0000000), wk =   0.0123457
        k(  128) = (   0.0555556   0.2886751   0.0000000), wk =   0.0000000
        k(  129) = (  -0.1666667  -0.0320750   0.0000000), wk =   0.0123457
        k(  130) = (  -0.1666667   0.3528252   0.0000000), wk =   0.0000000
        k(  131) = (   0.1111111  -0.1283001   0.0000000), wk =   0.0123457
        k(  132) = (   0.1111111   0.2566001   0.0000000), wk =   0.0000000
        k(  133) = (  -0.1666667   0.0320750   0.0000000), wk =   0.0123457
        k(  134) = (  -0.1666667   0.4169752   0.0000000), wk =   0.0000000
        k(  135) = (   0.1111111   0.1283001   0.0000000), wk =   0.0123457
        k(  136) = (   0.1111111   0.5132002   0.0000000), wk =   0.0000000
        k(  137) = (  -0.0555556  -0.1603751   0.0000000), wk =   0.0123457
        k(  138) = (  -0.0555556   0.2245251   0.0000000), wk =   0.0000000
        k(  139) = (  -0.2222222  -0.0641500   0.0000000), wk =   0.0123457
        k(  140) = (  -0.2222222   0.3207501   0.0000000), wk =   0.0000000
        k(  141) = (   0.1666667  -0.1603751   0.0000000), wk =   0.0123457
        k(  142) = (   0.1666667   0.2245251   0.0000000), wk =   0.0000000
        k(  143) = (  -0.2222222   0.0641500   0.0000000), wk =   0.0123457
        k(  144) = (  -0.2222222   0.4490502   0.0000000), wk =   0.0000000
        k(  145) = (   0.1666667   0.1603751   0.0000000), wk =   0.0123457
        k(  146) = (   0.1666667   0.5452753   0.0000000), wk =   0.0000000
        k(  147) = (  -0.0555556  -0.2245251   0.0000000), wk =   0.0123457
        k(  148) = (  -0.0555556   0.1603751   0.0000000), wk =   0.0000000
        k(  149) = (  -0.2777778  -0.0962250   0.0000000), wk =   0.0123457
        k(  150) = (  -0.2777778   0.2886751   0.0000000), wk =   0.0000000
        k(  151) = (   0.2222222  -0.1924501   0.0000000), wk =   0.0123457
        k(  152) = (   0.2222222   0.1924501   0.0000000), wk =   0.0000000
        k(  153) = (  -0.2777778   0.0962250   0.0000000), wk =   0.0123457
        k(  154) = (  -0.2777778   0.4811252   0.0000000), wk =   0.0000000
        k(  155) = (   0.2222222   0.1924501   0.0000000), wk =   0.0123457
        k(  156) = (   0.2222222   0.5773503   0.0000000), wk =   0.0000000
        k(  157) = (  -0.0555556  -0.2886751   0.0000000), wk =   0.0123457
        k(  158) = (  -0.0555556   0.0962250   0.0000000), wk =   0.0000000
        k(  159) = (  -0.3333333  -0.1283001   0.0000000), wk =   0.0123457
        k(  160) = (  -0.3333333   0.2566001   0.0000000), wk =   0.0000000
        k(  161) = (   0.2777778  -0.2245251   0.0000000), wk =   0.0123457
        k(  162) = (   0.2777778   0.1603751   0.0000000), wk =   0.0000000
        k(  163) = (  -0.3333333   0.1283001   0.0000000), wk =   0.0123457
        k(  164) = (  -0.3333333   0.5132002   0.0000000), wk =   0.0000000
        k(  165) = (   0.2777778   0.2245251   0.0000000), wk =   0.0123457
        k(  166) = (   0.2777778   0.6094253   0.0000000), wk =   0.0000000
        k(  167) = (  -0.0555556  -0.3528252   0.0000000), wk =   0.0123457
        k(  168) = (  -0.0555556   0.0320750   0.0000000), wk =   0.0000000
        k(  169) = (  -0.3888889  -0.1603751   0.0000000), wk =   0.0123457
        k(  170) = (  -0.3888889   0.2245251   0.0000000), wk =   0.0000000
        k(  171) = (   0.3333333  -0.2566001   0.0000000), wk =   0.0123457
        k(  172) = (   0.3333333   0.1283001   0.0000000), wk =   0.0000000
        k(  173) = (  -0.3888889   0.1603751   0.0000000), wk =   0.0123457
        k(  174) = (  -0.3888889   0.5452753   0.0000000), wk =   0.0000000
        k(  175) = (   0.3333333   0.2566001   0.0000000), wk =   0.0123457
        k(  176) = (   0.3333333   0.6415003   0.0000000), wk =   0.0000000
        k(  177) = (  -0.0555556  -0.4169752   0.0000000), wk =   0.0123457
        k(  178) = (  -0.0555556  -0.0320750   0.0000000), wk =   0.0000000
        k(  179) = (  -0.4444444  -0.1924501   0.0000000), wk =   0.0123457
        k(  180) = (  -0.4444444   0.1924501   0.0000000), wk =   0.0000000
        k(  181) = (   0.3888889  -0.2886751   0.0000000), wk =   0.0123457
        k(  182) = (   0.3888889   0.0962250   0.0000000), wk =   0.0000000
        k(  183) = (  -0.4444444   0.1924501   0.0000000), wk =   0.0123457
        k(  184) = (  -0.4444444   0.5773503   0.0000000), wk =   0.0000000
        k(  185) = (   0.3888889   0.2886751   0.0000000), wk =   0.0123457
        k(  186) = (   0.3888889   0.6735753   0.0000000), wk =   0.0000000
        k(  187) = (  -0.0555556  -0.4811252   0.0000000), wk =   0.0123457
        k(  188) = (  -0.0555556  -0.0962250   0.0000000), wk =   0.0000000
        k(  189) = (  -0.5000000  -0.2245251   0.0000000), wk =   0.0123457
        k(  190) = (  -0.5000000   0.1603751   0.0000000), wk =   0.0000000
        k(  191) = (   0.4444444  -0.3207501   0.0000000), wk =   0.0123457
        k(  192) = (   0.4444444   0.0641500   0.0000000), wk =   0.0000000
        k(  193) = (  -0.5000000   0.2245251   0.0000000), wk =   0.0123457
        k(  194) = (  -0.5000000   0.6094253   0.0000000), wk =   0.0000000
        k(  195) = (   0.4444444   0.3207501   0.0000000), wk =   0.0123457
        k(  196) = (   0.4444444   0.7056503   0.0000000), wk =   0.0000000
        k(  197) = (  -0.0555556  -0.5452753   0.0000000), wk =   0.0123457
        k(  198) = (  -0.0555556  -0.1603751   0.0000000), wk =   0.0000000
        k(  199) = (  -0.2222222  -0.0000000   0.0000000), wk =   0.0123457
        k(  200) = (  -0.2222222   0.3849002   0.0000000), wk =   0.0000000
        k(  201) = (   0.1111111  -0.1924501   0.0000000), wk =   0.0123457
        k(  202) = (   0.1111111   0.1924501   0.0000000), wk =   0.0000000
        k(  203) = (  -0.2777778  -0.0320750   0.0000000), wk =   0.0123457
        k(  204) = (  -0.2777778   0.3528252   0.0000000), wk =   0.0000000
        k(  205) = (   0.1666667  -0.2245251   0.0000000), wk =   0.0123457
        k(  206) = (   0.1666667   0.1603751   0.0000000), wk =   0.0000000
        k(  207) = (  -0.2777778   0.0320750   0.0000000), wk =   0.0123457
        k(  208) = (  -0.2777778   0.4169752   0.0000000), wk =   0.0000000
        k(  209) = (   0.1666667   0.2245251   0.0000000), wk =   0.0123457
        k(  210) = (   0.1666667   0.6094253   0.0000000), wk =   0.0000000
        k(  211) = (  -0.1111111  -0.2566001   0.0000000), wk =   0.0123457
        k(  212) = (  -0.1111111   0.1283001   0.0000000), wk =   0.0000000
        k(  213) = (  -0.3333333  -0.0641500   0.0000000), wk =   0.0123457
        k(  214) = (  -0.3333333   0.3207501   0.0000000), wk =   0.0000000
        k(  215) = (   0.2222222  -0.2566001   0.0000000), wk =   0.0123457
        k(  216) = (   0.2222222   0.1283001   0.0000000), wk =   0.0000000
        k(  217) = (  -0.3333333   0.0641500   0.0000000), wk =   0.0123457
        k(  218) = (  -0.3333333   0.4490502   0.0000000), wk =   0.0000000
        k(  219) = (   0.2222222   0.2566001   0.0000000), wk =   0.0123457
        k(  220) = (   0.2222222   0.6415003   0.0000000), wk =   0.0000000
        k(  221) = (  -0.1111111  -0.3207501   0.0000000), wk =   0.0123457
        k(  222) = (  -0.1111111   0.0641500   0.0000000), wk =   0.0000000
        k(  223) = (  -0.3888889  -0.0962250   0.0000000), wk =   0.0123457
        k(  224) = (  -0.3888889   0.2886751   0.0000000), wk =   0.0000000
        k(  225) = (   0.2777778  -0.2886751   0.0000000), wk =   0.0123457
        k(  226) = (   0.2777778   0.0962250   0.0000000), wk =   0.0000000
        k(  227) = (  -0.3888889   0.0962250   0.0000000), wk =   0.0123457
        k(  228) = (  -0.3888889   0.4811252   0.0000000), wk =   0.0000000
        k(  229) = (   0.2777778   0.2886751   0.0000000), wk =   0.0123457
        k(  230) = (   0.2777778   0.6735753   0.0000000), wk =   0.0000000
        k(  231) = (  -0.1111111  -0.3849002   0.0000000), wk =   0.0123457
        k(  232) = (  -0.1111111   0.0000000   0.0000000), wk =   0.0000000
        k(  233) = (  -0.4444444  -0.1283001   0.0000000), wk =   0.0123457
        k(  234) = (  -0.4444444   0.2566001   0.0000000), wk =   0.0000000
        k(  235) = (   0.3333333  -0.3207501   0.0000000), wk =   0.0123457
        k(  236) = (   0.3333333   0.0641500   0.0000000), wk =   0.0000000
        k(  237) = (  -0.4444444   0.1283001   0.0000000), wk =   0.0123457
        k(  238) = (  -0.4444444   0.5132002   0.0000000), wk =   0.0000000
        k(  239) = (   0.3333333   0.3207501   0.0000000), wk =   0.0123457
        k(  240) = (   0.3333333   0.7056503   0.0000000), wk =   0.0000000
        k(  241) = (  -0.1111111  -0.4490502   0.0000000), wk =   0.0123457
        k(  242) = (  -0.1111111  -0.0641500   0.0000000), wk =   0.0000000
        k(  243) = (  -0.5000000  -0.1603751   0.0000000), wk =   0.0123457
        k(  244) = (  -0.5000000   0.2245251   0.0000000), wk =   0.0000000
        k(  245) = (   0.3888889  -0.3528252   0.0000000), wk =   0.0123457
        k(  246) = (   0.3888889   0.0320750   0.0000000), wk =   0.0000000
        k(  247) = (  -0.5000000   0.1603751   0.0000000), wk =   0.0123457
        k(  248) = (  -0.5000000   0.5452753   0.0000000), wk =   0.0000000
        k(  249) = (   0.3888889   0.3528252   0.0000000), wk =   0.0123457
        k(  250) = (   0.3888889   0.7377253   0.0000000), wk =   0.0000000
        k(  251) = (  -0.1111111  -0.5132002   0.0000000), wk =   0.0123457
        k(  252) = (  -0.1111111  -0.1283001   0.0000000), wk =   0.0000000
        k(  253) = (  -0.5555556  -0.1924501   0.0000000), wk =   0.0123457
        k(  254) = (  -0.5555556   0.1924501   0.0000000), wk =   0.0000000
        k(  255) = (   0.4444444  -0.3849002   0.0000000), wk =   0.0123457
        k(  256) = (   0.4444444   0.0000000   0.0000000), wk =   0.0000000
        k(  257) = (  -0.3333333  -0.0000000   0.0000000), wk =   0.0123457
        k(  258) = (  -0.3333333   0.3849002   0.0000000), wk =   0.0000000
        k(  259) = (   0.1666667  -0.2886751   0.0000000), wk =   0.0123457
        k(  260) = (   0.1666667   0.0962250   0.0000000), wk =   0.0000000
        k(  261) = (  -0.3888889  -0.0320750   0.0000000), wk =   0.0123457
        k(  262) = (  -0.3888889   0.3528252   0.0000000), wk =   0.0000000
        k(  263) = (   0.2222222  -0.3207501   0.0000000), wk =   0.0123457
        k(  264) = (   0.2222222   0.0641500   0.0000000), wk =   0.0000000
        k(  265) = (  -0.3888889   0.0320750   0.0000000), wk =   0.0123457
        k(  266) = (  -0.3888889   0.4169752   0.0000000), wk =   0.0000000
        k(  267) = (   0.2222222   0.3207501   0.0000000), wk =   0.0123457
        k(  268) = (   0.2222222   0.7056503   0.0000000), wk =   0.0000000
        k(  269) = (  -0.1666667  -0.3528252   0.0000000), wk =   0.0123457
        k(  270) = (  -0.1666667   0.0320750   0.0000000), wk =   0.0000000
        k(  271) = (  -0.4444444  -0.0641500   0.0000000), wk =   0.0123457
        k(  272) = (  -0.4444444   0.3207501   0.0000000), wk =   0.0000000
        k(  273) = (   0.2777778  -0.3528252   0.0000000), wk =   0.0123457
        k(  274) = (   0.2777778   0.0320750   0.0000000), wk =   0.0000000
        k(  275) = (  -0.4444444   0.0641500   0.0000000), wk =   0.0123457
        k(  276) = (  -0.4444444   0.4490502   0.0000000), wk =   0.0000000
        k(  277) = (   0.2777778   0.3528252   0.0000000), wk =   0.0123457
        k(  278) = (   0.2777778   0.7377253   0.0000000), wk =   0.0000000
        k(  279) = (  -0.1666667  -0.4169752   0.0000000), wk =   0.0123457
        k(  280) = (  -0.1666667  -0.0320750   0.0000000), wk =   0.0000000
        k(  281) = (  -0.5000000  -0.0962250   0.0000000), wk =   0.0123457
        k(  282) = (  -0.5000000   0.2886751   0.0000000), wk =   0.0000000
        k(  283) = (   0.3333333  -0.3849002   0.0000000), wk =   0.0123457
        k(  284) = (   0.3333333   0.0000000   0.0000000), wk =   0.0000000
        k(  285) = (  -0.5000000   0.0962250   0.0000000), wk =   0.0123457
        k(  286) = (  -0.5000000   0.4811252   0.0000000), wk =   0.0000000
        k(  287) = (   0.3333333   0.3849002   0.0000000), wk =   0.0123457
        k(  288) = (   0.3333333   0.7698004   0.0000000), wk =   0.0000000
        k(  289) = (  -0.1666667  -0.4811252   0.0000000), wk =   0.0123457
        k(  290) = (  -0.1666667  -0.0962250   0.0000000), wk =   0.0000000
        k(  291) = (  -0.5555556  -0.1283001   0.0000000), wk =   0.0123457
        k(  292) = (  -0.5555556   0.2566001   0.0000000), wk =   0.0000000
        k(  293) = (   0.3888889  -0.4169752   0.0000000), wk =   0.0123457
        k(  294) = (   0.3888889  -0.0320750   0.0000000), wk =   0.0000000
        k(  295) = (  -0.5555556   0.1283001   0.0000000), wk =   0.0123457
        k(  296) = (  -0.5555556   0.5132002   0.0000000), wk =   0.0000000
        k(  297) = (   0.3888889   0.4169752   0.0000000), wk =   0.0123457
        k(  298) = (   0.3888889   0.8018754   0.0000000), wk =   0.0000000
        k(  299) = (  -0.1666667  -0.5452753   0.0000000), wk =   0.0123457
        k(  300) = (  -0.1666667  -0.1603751   0.0000000), wk =   0.0000000
        k(  301) = (  -0.4444444  -0.0000000   0.0000000), wk =   0.0123457
        k(  302) = (  -0.4444444   0.3849002   0.0000000), wk =   0.0000000
        k(  303) = (   0.2222222  -0.3849002   0.0000000), wk =   0.0123457
        k(  304) = (   0.2222222  -0.0000000   0.0000000), wk =   0.0000000
        k(  305) = (  -0.5000000  -0.0320750   0.0000000), wk =   0.0123457
        k(  306) = (  -0.5000000   0.3528252   0.0000000), wk =   0.0000000
        k(  307) = (   0.2777778  -0.4169752   0.0000000), wk =   0.0123457
        k(  308) = (   0.2777778  -0.0320750   0.0000000), wk =   0.0000000
        k(  309) = (  -0.5000000   0.0320750   0.0000000), wk =   0.0123457
        k(  310) = (  -0.5000000   0.4169752   0.0000000), wk =   0.0000000
        k(  311) = (   0.2777778   0.4169752   0.0000000), wk =   0.0123457
        k(  312) = (   0.2777778   0.8018754   0.0000000), wk =   0.0000000
        k(  313) = (  -0.2222222  -0.4490502   0.0000000), wk =   0.0123457
        k(  314) = (  -0.2222222  -0.0641500   0.0000000), wk =   0.0000000
        k(  315) = (  -0.5555556  -0.0641500   0.0000000), wk =   0.0123457
        k(  316) = (  -0.5555556   0.3207501   0.0000000), wk =   0.0000000
        k(  317) = (   0.3333333  -0.4490502   0.0000000), wk =   0.0123457
        k(  318) = (   0.3333333  -0.0641500   0.0000000), wk =   0.0000000
        k(  319) = (  -0.5555556   0.0641500   0.0000000), wk =   0.0123457
        k(  320) = (  -0.5555556   0.4490502   0.0000000), wk =   0.0000000
        k(  321) = (   0.3333333   0.4490502   0.0000000), wk =   0.0123457
        k(  322) = (   0.3333333   0.8339504   0.0000000), wk =   0.0000000
        k(  323) = (  -0.2222222  -0.5132002   0.0000000), wk =   0.0123457
        k(  324) = (  -0.2222222  -0.1283001   0.0000000), wk =   0.0000000
        k(  325) = (  -0.6111111  -0.0962250   0.0000000), wk =   0.0123457
        k(  326) = (  -0.6111111   0.2886751   0.0000000), wk =   0.0000000
        k(  327) = (   0.3888889  -0.4811252   0.0000000), wk =   0.0123457
        k(  328) = (   0.3888889  -0.0962250   0.0000000), wk =   0.0000000
        k(  329) = (  -0.5555556  -0.0000000   0.0000000), wk =   0.0123457
        k(  330) = (  -0.5555556   0.3849002   0.0000000), wk =   0.0000000
        k(  331) = (   0.2777778  -0.4811252   0.0000000), wk =   0.0123457
        k(  332) = (   0.2777778  -0.0962250   0.0000000), wk =   0.0000000
        k(  333) = (  -0.6111111  -0.0320750   0.0000000), wk =   0.0123457
        k(  334) = (  -0.6111111   0.3528252   0.0000000), wk =   0.0000000
        k(  335) = (   0.3333333  -0.5132002   0.0000000), wk =   0.0123457
        k(  336) = (   0.3333333  -0.1283001   0.0000000), wk =   0.0000000
        k(  337) = (  -0.6111111   0.0320750   0.0000000), wk =   0.0123457
        k(  338) = (  -0.6111111   0.4169752   0.0000000), wk =   0.0000000
        k(  339) = (   0.3333333   0.5132002   0.0000000), wk =   0.0123457
        k(  340) = (   0.3333333   0.8981004   0.0000000), wk =   0.0000000
        k(  341) = (  -0.2777778  -0.5452753   0.0000000), wk =   0.0123457
        k(  342) = (  -0.2777778  -0.1603751   0.0000000), wk =   0.0000000

                       cryst. coord.
        k(    1) = (   0.0000000   0.0000000   0.0000000), wk =   0.0061728
        k(    2) = (   0.0000000   0.3333333   0.0000000), wk =   0.0000000
        k(    3) = (   0.0000000   0.0555556   0.0000000), wk =   0.0061728
        k(    4) = (   0.0000000   0.3888889   0.0000000), wk =   0.0000000
        k(    5) = (   0.0000000   0.1111111   0.0000000), wk =   0.0061728
        k(    6) = (   0.0000000   0.4444444   0.0000000), wk =   0.0000000
        k(    7) = (   0.0000000   0.1666667   0.0000000), wk =   0.0061728
        k(    8) = (   0.0000000   0.5000000   0.0000000), wk =   0.0000000
        k(    9) = (   0.0000000   0.2222222   0.0000000), wk =   0.0061728
        k(   10) = (   0.0000000   0.5555556   0.0000000), wk =   0.0000000
        k(   11) = (   0.0000000   0.2777778   0.0000000), wk =   0.0061728
        k(   12) = (   0.0000000   0.6111111   0.0000000), wk =   0.0000000
        k(   13) = (   0.0000000   0.3333333   0.0000000), wk =   0.0061728
        k(   14) = (   0.0000000   0.6666667   0.0000000), wk =   0.0000000
        k(   15) = (   0.0000000   0.3888889   0.0000000), wk =   0.0061728
        k(   16) = (   0.0000000   0.7222222   0.0000000), wk =   0.0000000
        k(   17) = (   0.0000000   0.4444444   0.0000000), wk =   0.0061728
        k(   18) = (   0.0000000   0.7777778   0.0000000), wk =   0.0000000
        k(   19) = (   0.0000000  -0.5000000   0.0000000), wk =   0.0061728
        k(   20) = (   0.0000000  -0.1666667   0.0000000), wk =   0.0000000
        k(   21) = (   0.0555556   0.0555556   0.0000000), wk =   0.0123457
        k(   22) = (   0.0555556   0.3888889   0.0000000), wk =   0.0000000
        k(   23) = (   0.0555556   0.1111111   0.0000000), wk =   0.0123457
        k(   24) = (   0.0555556   0.4444444   0.0000000), wk =   0.0000000
        k(   25) = (   0.0555556   0.1666667   0.0000000), wk =   0.0123457
        k(   26) = (   0.0555556   0.5000000   0.0000000), wk =   0.0000000
        k(   27) = (   0.0555556   0.2222222   0.0000000), wk =   0.0123457
        k(   28) = (   0.0555556   0.5555556   0.0000000), wk =   0.0000000
        k(   29) = (   0.0555556   0.2777778   0.0000000), wk =   0.0123457
        k(   30) = (   0.0555556   0.6111111   0.0000000), wk =   0.0000000
        k(   31) = (   0.0555556   0.3333333   0.0000000), wk =   0.0123457
        k(   32) = (   0.0555556   0.6666667   0.0000000), wk =   0.0000000
        k(   33) = (   0.0555556   0.3888889   0.0000000), wk =   0.0123457
        k(   34) = (   0.0555556   0.7222222   0.0000000), wk =   0.0000000
        k(   35) = (   0.0555556   0.4444444   0.0000000), wk =   0.0123457
        k(   36) = (   0.0555556   0.7777778   0.0000000), wk =   0.0000000
        k(   37) = (   0.1111111   0.1111111   0.0000000), wk =   0.0123457
        k(   38) = (   0.1111111   0.4444444   0.0000000), wk =   0.0000000
        k(   39) = (   0.1111111   0.1666667   0.0000000), wk =   0.0123457
        k(   40) = (   0.1111111   0.5000000   0.0000000), wk =   0.0000000
        k(   41) = (   0.1111111   0.2222222   0.0000000), wk =   0.0123457
        k(   42) = (   0.1111111   0.5555556   0.0000000), wk =   0.0000000
        k(   43) = (   0.1111111   0.2777778   0.0000000), wk =   0.0123457
        k(   44) = (   0.1111111   0.6111111   0.0000000), wk =   0.0000000
        k(   45) = (   0.1111111   0.3333333   0.0000000), wk =   0.0123457
        k(   46) = (   0.1111111   0.6666667   0.0000000), wk =   0.0000000
        k(   47) = (   0.1111111   0.3888889   0.0000000), wk =   0.0123457
        k(   48) = (   0.1111111   0.7222222   0.0000000), wk =   0.0000000
        k(   49) = (   0.1111111   0.4444444   0.0000000), wk =   0.0123457
        k(   50) = (   0.1111111   0.7777778   0.0000000), wk =   0.0000000
        k(   51) = (   0.1666667   0.1666667   0.0000000), wk =   0.0123457
        k(   52) = (   0.1666667   0.5000000   0.0000000), wk =   0.0000000
        k(   53) = (   0.1666667   0.2222222   0.0000000), wk =   0.0123457
        k(   54) = (   0.1666667   0.5555556   0.0000000), wk =   0.0000000
        k(   55) = (   0.1666667   0.2777778   0.0000000), wk =   0.0123457
        k(   56) = (   0.1666667   0.6111111   0.0000000), wk =   0.0000000
        k(   57) = (   0.1666667   0.3333333   0.0000000), wk =   0.0123457
        k(   58) = (   0.1666667   0.6666667   0.0000000), wk =   0.0000000
        k(   59) = (   0.1666667   0.3888889   0.0000000), wk =   0.0123457
        k(   60) = (   0.1666667   0.7222222   0.0000000), wk =   0.0000000
        k(   61) = (   0.2222222   0.2222222   0.0000000), wk =   0.0123457
        k(   62) = (   0.2222222   0.5555556   0.0000000), wk =   0.0000000
        k(   63) = (   0.2222222   0.2777778   0.0000000), wk =   0.0123457
        k(   64) = (   0.2222222   0.6111111   0.0000000), wk =   0.0000000
        k(   65) = (   0.2222222   0.3333333   0.0000000), wk =   0.0123457
        k(   66) = (   0.2222222   0.6666667   0.0000000), wk =   0.0000000
        k(   67) = (   0.2222222   0.3888889   0.0000000), wk =   0.0123457
        k(   68) = (   0.2222222   0.7222222   0.0000000), wk =   0.0000000
        k(   69) = (   0.2777778   0.2777778   0.0000000), wk =   0.0123457
        k(   70) = (   0.2777778   0.6111111   0.0000000), wk =   0.0000000
        k(   71) = (   0.2777778   0.3333333   0.0000000), wk =   0.0123457
        k(   72) = (   0.2777778   0.6666667   0.0000000), wk =   0.0000000
        k(   73) = (   0.3333333   0.3333333   0.0000000), wk =   0.0123457
        k(   74) = (   0.3333333   0.6666667   0.0000000), wk =   0.0000000
        k(   75) = (  -0.0555556   0.0000000   0.0000000), wk =   0.0123457
        k(   76) = (  -0.0555556   0.3333333   0.0000000), wk =   0.0000000
        k(   77) = (  -0.0555556   0.0555556   0.0000000), wk =   0.0123457
        k(   78) = (  -0.0555556   0.3888889   0.0000000), wk =   0.0000000
        k(   79) = (   0.0000000  -0.0555556   0.0000000), wk =   0.0061728
        k(   80) = (   0.0000000   0.2777778   0.0000000), wk =   0.0000000
        k(   81) = (  -0.1111111   0.0000000   0.0000000), wk =   0.0123457
        k(   82) = (  -0.1111111   0.3333333   0.0000000), wk =   0.0000000
        k(   83) = (  -0.1111111   0.1111111   0.0000000), wk =   0.0123457
        k(   84) = (  -0.1111111   0.4444444   0.0000000), wk =   0.0000000
        k(   85) = (   0.0000000  -0.1111111   0.0000000), wk =   0.0061728
        k(   86) = (   0.0000000   0.2222222   0.0000000), wk =   0.0000000
        k(   87) = (  -0.1666667  -0.0000000   0.0000000), wk =   0.0123457
        k(   88) = (  -0.1666667   0.3333333   0.0000000), wk =   0.0000000
        k(   89) = (  -0.1666667   0.1666667   0.0000000), wk =   0.0123457
        k(   90) = (  -0.1666667   0.5000000   0.0000000), wk =   0.0000000
        k(   91) = (   0.0000000  -0.1666667   0.0000000), wk =   0.0061728
        k(   92) = (   0.0000000   0.1666667   0.0000000), wk =   0.0000000
        k(   93) = (  -0.2222222   0.0000000   0.0000000), wk =   0.0123457
        k(   94) = (  -0.2222222   0.3333333   0.0000000), wk =   0.0000000
        k(   95) = (  -0.2222222   0.2222222   0.0000000), wk =   0.0123457
        k(   96) = (  -0.2222222   0.5555556   0.0000000), wk =   0.0000000
        k(   97) = (   0.0000000  -0.2222222   0.0000000), wk =   0.0061728
        k(   98) = (   0.0000000   0.1111111   0.0000000), wk =   0.0000000
        k(   99) = (  -0.2777778   0.0000000   0.0000000), wk =   0.0123457
        k(  100) = (  -0.2777778   0.3333333   0.0000000), wk =   0.0000000
        k(  101) = (  -0.2777778   0.2777778   0.0000000), wk =   0.0123457
        k(  102) = (  -0.2777778   0.6111111   0.0000000), wk =   0.0000000
        k(  103) = (   0.0000000  -0.2777778   0.0000000), wk =   0.0061728
        k(  104) = (   0.0000000   0.0555556   0.0000000), wk =   0.0000000
        k(  105) = (  -0.3333333   0.0000000   0.0000000), wk =   0.0123457
        k(  106) = (  -0.3333333   0.3333333   0.0000000), wk =   0.0000000
        k(  107) = (  -0.3333333   0.3333333   0.0000000), wk =   0.0123457
        k(  108) = (  -0.3333333   0.6666667   0.0000000), wk =   0.0000000
        k(  109) = (   0.0000000  -0.3333333   0.0000000), wk =   0.0061728
        k(  110) = (   0.0000000   0.0000000   0.0000000), wk =   0.0000000
        k(  111) = (  -0.3888889  -0.0000000   0.0000000), wk =   0.0123457
        k(  112) = (  -0.3888889   0.3333333   0.0000000), wk =   0.0000000
        k(  113) = (  -0.3888889   0.3888889   0.0000000), wk =   0.0123457
        k(  114) = (  -0.3888889   0.7222222   0.0000000), wk =   0.0000000
        k(  115) = (   0.0000000  -0.3888889   0.0000000), wk =   0.0061728
        k(  116) = (   0.0000000  -0.0555556   0.0000000), wk =   0.0000000
        k(  117) = (  -0.4444444   0.0000000   0.0000000), wk =   0.0123457
        k(  118) = (  -0.4444444   0.3333333   0.0000000), wk =   0.0000000
        k(  119) = (  -0.4444444   0.4444444   0.0000000), wk =   0.0123457
        k(  120) = (  -0.4444444   0.7777778   0.0000000), wk =   0.0000000
        k(  121) = (   0.0000000  -0.4444444   0.0000000), wk =   0.0061728
        k(  122) = (   0.0000000  -0.1111111   0.0000000), wk =   0.0000000
        k(  123) = (   0.5000000   0.0000000   0.0000000), wk =   0.0123457
        k(  124) = (   0.5000000   0.3333333   0.0000000), wk =   0.0000000
        k(  125) = (  -0.1111111   0.0555556   0.0000000), wk =   0.0123457
        k(  126) = (  -0.1111111   0.3888889   0.0000000), wk =   0.0000000
        k(  127) = (   0.0555556  -0.1111111   0.0000000), wk =   0.0123457
        k(  128) = (   0.0555556   0.2222222   0.0000000), wk =   0.0000000
        k(  129) = (  -0.1666667   0.0555556   0.0000000), wk =   0.0123457
        k(  130) = (  -0.1666667   0.3888889   0.0000000), wk =   0.0000000
        k(  131) = (   0.1111111  -0.1666667   0.0000000), wk =   0.0123457
        k(  132) = (   0.1111111   0.1666667   0.0000000), wk =   0.0000000
        k(  133) = (  -0.1666667   0.1111111   0.0000000), wk =   0.0123457
        k(  134) = (  -0.1666667   0.4444444   0.0000000), wk =   0.0000000
        k(  135) = (   0.1111111   0.0555556   0.0000000), wk =   0.0123457
        k(  136) = (   0.1111111   0.3888889   0.0000000), wk =   0.0000000
        k(  137) = (  -0.0555556  -0.1111111   0.0000000), wk =   0.0123457
        k(  138) = (  -0.0555556   0.2222222   0.0000000), wk =   0.0000000
        k(  139) = (  -0.2222222   0.0555556   0.0000000), wk =   0.0123457
        k(  140) = (  -0.2222222   0.3888889   0.0000000), wk =   0.0000000
        k(  141) = (   0.1666667  -0.2222222   0.0000000), wk =   0.0123457
        k(  142) = (   0.1666667   0.1111111   0.0000000), wk =   0.0000000
        k(  143) = (  -0.2222222   0.1666667   0.0000000), wk =   0.0123457
        k(  144) = (  -0.2222222   0.5000000   0.0000000), wk =   0.0000000
        k(  145) = (   0.1666667   0.0555556   0.0000000), wk =   0.0123457
        k(  146) = (   0.1666667   0.3888889   0.0000000), wk =   0.0000000
        k(  147) = (  -0.0555556  -0.1666667   0.0000000), wk =   0.0123457
        k(  148) = (  -0.0555556   0.1666667   0.0000000), wk =   0.0000000
        k(  149) = (  -0.2777778   0.0555556   0.0000000), wk =   0.0123457
        k(  150) = (  -0.2777778   0.3888889   0.0000000), wk =   0.0000000
        k(  151) = (   0.2222222  -0.2777778   0.0000000), wk =   0.0123457
        k(  152) = (   0.2222222   0.0555556   0.0000000), wk =   0.0000000
        k(  153) = (  -0.2777778   0.2222222   0.0000000), wk =   0.0123457
        k(  154) = (  -0.2777778   0.5555556   0.0000000), wk =   0.0000000
        k(  155) = (   0.2222222   0.0555556   0.0000000), wk =   0.0123457
        k(  156) = (   0.2222222   0.3888889   0.0000000), wk =   0.0000000
        k(  157) = (  -0.0555556  -0.2222222   0.0000000), wk =   0.0123457
        k(  158) = (  -0.0555556   0.1111111   0.0000000), wk =   0.0000000
        k(  159) = (  -0.3333333   0.0555556   0.0000000), wk =   0.0123457
        k(  160) = (  -0.3333333   0.3888889   0.0000000), wk =   0.0000000
        k(  161) = (   0.2777778  -0.3333333   0.0000000), wk =   0.0123457
        k(  162) = (   0.2777778   0.0000000   0.0000000), wk =   0.0000000
        k(  163) = (  -0.3333333   0.2777778   0.0000000), wk =   0.0123457
        k(  164) = (  -0.3333333   0.6111111   0.0000000), wk =   0.0000000
        k(  165) = (   0.2777778   0.0555556   0.0000000), wk =   0.0123457
        k(  166) = (   0.2777778   0.3888889   0.0000000), wk =   0.0000000
        k(  167) = (  -0.0555556  -0.2777778   0.0000000), wk =   0.0123457
        k(  168) = (  -0.0555556   0.0555556   0.0000000), wk =   0.0000000
        k(  169) = (  -0.3888889   0.0555556   0.0000000), wk =   0.0123457
        k(  170) = (  -0.3888889   0.3888889   0.0000000), wk =   0.0000000
        k(  171) = (   0.3333333  -0.3888889   0.0000000), wk =   0.0123457
        k(  172) = (   0.3333333  -0.0555556   0.0000000), wk =   0.0000000
        k(  173) = (  -0.3888889   0.3333333   0.0000000), wk =   0.0123457
        k(  174) = (  -0.3888889   0.6666667   0.0000000), wk =   0.0000000
        k(  175) = (   0.3333333   0.0555556   0.0000000), wk =   0.0123457
        k(  176) = (   0.3333333   0.3888889   0.0000000), wk =   0.0000000
        k(  177) = (  -0.0555556  -0.3333333   0.0000000), wk =   0.0123457
        k(  178) = (  -0.0555556   0.0000000   0.0000000), wk =   0.0000000
        k(  179) = (  -0.4444444   0.0555556   0.0000000), wk =   0.0123457
        k(  180) = (  -0.4444444   0.3888889   0.0000000), wk =   0.0000000
        k(  181) = (   0.3888889  -0.4444444   0.0000000), wk =   0.0123457
        k(  182) = (   0.3888889  -0.1111111   0.0000000), wk =   0.0000000
        k(  183) = (  -0.4444444   0.3888889   0.0000000), wk =   0.0123457
        k(  184) = (  -0.4444444   0.7222222   0.0000000), wk =   0.0000000
        k(  185) = (   0.3888889   0.0555556   0.0000000), wk =   0.0123457
        k(  186) = (   0.3888889   0.3888889   0.0000000), wk =   0.0000000
        k(  187) = (  -0.0555556  -0.3888889   0.0000000), wk =   0.0123457
        k(  188) = (  -0.0555556  -0.0555556   0.0000000), wk =   0.0000000
        k(  189) = (  -0.5000000   0.0555556   0.0000000), wk =   0.0123457
        k(  190) = (  -0.5000000   0.3888889   0.0000000), wk =   0.0000000
        k(  191) = (   0.4444444  -0.5000000   0.0000000), wk =   0.0123457
        k(  192) = (   0.4444444  -0.1666667   0.0000000), wk =   0.0000000
        k(  193) = (  -0.5000000   0.4444444   0.0000000), wk =   0.0123457
        k(  194) = (  -0.5000000   0.7777778   0.0000000), wk =   0.0000000
        k(  195) = (   0.4444444   0.0555556   0.0000000), wk =   0.0123457
        k(  196) = (   0.4444444   0.3888889   0.0000000), wk =   0.0000000
        k(  197) = (  -0.0555556  -0.4444444   0.0000000), wk =   0.0123457
        k(  198) = (  -0.0555556  -0.1111111   0.0000000), wk =   0.0000000
        k(  199) = (  -0.2222222   0.1111111   0.0000000), wk =   0.0123457
        k(  200) = (  -0.2222222   0.4444444   0.0000000), wk =   0.0000000
        k(  201) = (   0.1111111  -0.2222222   0.0000000), wk =   0.0123457
        k(  202) = (   0.1111111   0.1111111   0.0000000), wk =   0.0000000
        k(  203) = (  -0.2777778   0.1111111   0.0000000), wk =   0.0123457
        k(  204) = (  -0.2777778   0.4444444   0.0000000), wk =   0.0000000
        k(  205) = (   0.1666667  -0.2777778   0.0000000), wk =   0.0123457
        k(  206) = (   0.1666667   0.0555556   0.0000000), wk =   0.0000000
        k(  207) = (  -0.2777778   0.1666667   0.0000000), wk =   0.0123457
        k(  208) = (  -0.2777778   0.5000000   0.0000000), wk =   0.0000000
        k(  209) = (   0.1666667   0.1111111   0.0000000), wk =   0.0123457
        k(  210) = (   0.1666667   0.4444444   0.0000000), wk =   0.0000000
        k(  211) = (  -0.1111111  -0.1666667   0.0000000), wk =   0.0123457
        k(  212) = (  -0.1111111   0.1666667   0.0000000), wk =   0.0000000
        k(  213) = (  -0.3333333   0.1111111   0.0000000), wk =   0.0123457
        k(  214) = (  -0.3333333   0.4444444   0.0000000), wk =   0.0000000
        k(  215) = (   0.2222222  -0.3333333   0.0000000), wk =   0.0123457
        k(  216) = (   0.2222222   0.0000000   0.0000000), wk =   0.0000000
        k(  217) = (  -0.3333333   0.2222222   0.0000000), wk =   0.0123457
        k(  218) = (  -0.3333333   0.5555556   0.0000000), wk =   0.0000000
        k(  219) = (   0.2222222   0.1111111   0.0000000), wk =   0.0123457
        k(  220) = (   0.2222222   0.4444444   0.0000000), wk =   0.0000000
        k(  221) = (  -0.1111111  -0.2222222   0.0000000), wk =   0.0123457
        k(  222) = (  -0.1111111   0.1111111   0.0000000), wk =   0.0000000
        k(  223) = (  -0.3888889   0.1111111   0.0000000), wk =   0.0123457
        k(  224) = (  -0.3888889   0.4444444   0.0000000), wk =   0.0000000
        k(  225) = (   0.2777778  -0.3888889   0.0000000), wk =   0.0123457
        k(  226) = (   0.2777778  -0.0555556   0.0000000), wk =   0.0000000
        k(  227) = (  -0.3888889   0.2777778   0.0000000), wk =   0.0123457
        k(  228) = (  -0.3888889   0.6111111   0.0000000), wk =   0.0000000
        k(  229) = (   0.2777778   0.1111111   0.0000000), wk =   0.0123457
        k(  230) = (   0.2777778   0.4444444   0.0000000), wk =   0.0000000
        k(  231) = (  -0.1111111  -0.2777778   0.0000000), wk =   0.0123457
        k(  232) = (  -0.1111111   0.0555556   0.0000000), wk =   0.0000000
        k(  233) = (  -0.4444444   0.1111111   0.0000000), wk =   0.0123457
        k(  234) = (  -0.4444444   0.4444444   0.0000000), wk =   0.0000000
        k(  235) = (   0.3333333  -0.4444444   0.0000000), wk =   0.0123457
        k(  236) = (   0.3333333  -0.1111111   0.0000000), wk =   0.0000000
        k(  237) = (  -0.4444444   0.3333333   0.0000000), wk =   0.0123457
        k(  238) = (  -0.4444444   0.6666667   0.0000000), wk =   0.0000000
        k(  239) = (   0.3333333   0.1111111   0.0000000), wk =   0.0123457
        k(  240) = (   0.3333333   0.4444444   0.0000000), wk =   0.0000000
        k(  241) = (  -0.1111111  -0.3333333   0.0000000), wk =   0.0123457
        k(  242) = (  -0.1111111   0.0000000   0.0000000), wk =   0.0000000
        k(  243) = (  -0.5000000   0.1111111   0.0000000), wk =   0.0123457
        k(  244) = (  -0.5000000   0.4444444   0.0000000), wk =   0.0000000
        k(  245) = (   0.3888889  -0.5000000   0.0000000), wk =   0.0123457
        k(  246) = (   0.3888889  -0.1666667   0.0000000), wk =   0.0000000
        k(  247) = (  -0.5000000   0.3888889   0.0000000), wk =   0.0123457
        k(  248) = (  -0.5000000   0.7222222   0.0000000), wk =   0.0000000
        k(  249) = (   0.3888889   0.1111111   0.0000000), wk =   0.0123457
        k(  250) = (   0.3888889   0.4444444   0.0000000), wk =   0.0000000
        k(  251) = (  -0.1111111  -0.3888889   0.0000000), wk =   0.0123457
        k(  252) = (  -0.1111111  -0.0555556   0.0000000), wk =   0.0000000
        k(  253) = (  -0.5555556   0.1111111   0.0000000), wk =   0.0123457
        k(  254) = (  -0.5555556   0.4444444   0.0000000), wk =   0.0000000
        k(  255) = (   0.4444444  -0.5555556   0.0000000), wk =   0.0123457
        k(  256) = (   0.4444444  -0.2222222   0.0000000), wk =   0.0000000
        k(  257) = (  -0.3333333   0.1666667   0.0000000), wk =   0.0123457
        k(  258) = (  -0.3333333   0.5000000   0.0000000), wk =   0.0000000
        k(  259) = (   0.1666667  -0.3333333   0.0000000), wk =   0.0123457
        k(  260) = (   0.1666667  -0.0000000   0.0000000), wk =   0.0000000
        k(  261) = (  -0.3888889   0.1666667   0.0000000), wk =   0.0123457
        k(  262) = (  -0.3888889   0.5000000   0.0000000), wk =   0.0000000
        k(  263) = (   0.2222222  -0.3888889   0.0000000), wk =   0.0123457
        k(  264) = (   0.2222222  -0.0555556   0.0000000), wk =   0.0000000
        k(  265) = (  -0.3888889   0.2222222   0.0000000), wk =   0.0123457
        k(  266) = (  -0.3888889   0.5555556   0.0000000), wk =   0.0000000
        k(  267) = (   0.2222222   0.1666667   0.0000000), wk =   0.0123457
        k(  268) = (   0.2222222   0.5000000   0.0000000), wk =   0.0000000
        k(  269) = (  -0.1666667  -0.2222222   0.0000000), wk =   0.0123457
        k(  270) = (  -0.1666667   0.1111111   0.0000000), wk =   0.0000000
        k(  271) = (  -0.4444444   0.1666667   0.0000000), wk =   0.0123457
        k(  272) = (  -0.4444444   0.5000000   0.0000000), wk =   0.0000000
        k(  273) = (   0.2777778  -0.4444444   0.0000000), wk =   0.0123457
        k(  274) = (   0.2777778  -0.1111111   0.0000000), wk =   0.0000000
        k(  275) = (  -0.4444444   0.2777778   0.0000000), wk =   0.0123457
        k(  276) = (  -0.4444444   0.6111111   0.0000000), wk =   0.0000000
        k(  277) = (   0.2777778   0.1666667   0.0000000), wk =   0.0123457
        k(  278) = (   0.2777778   0.5000000   0.0000000), wk =   0.0000000
        k(  279) = (  -0.1666667  -0.2777778   0.0000000), wk =   0.0123457
        k(  280) = (  -0.1666667   0.0555556   0.0000000), wk =   0.0000000
        k(  281) = (  -0.5000000   0.1666667   0.0000000), wk =   0.0123457
        k(  282) = (  -0.5000000   0.5000000   0.0000000), wk =   0.0000000
        k(  283) = (   0.3333333  -0.5000000   0.0000000), wk =   0.0123457
        k(  284) = (   0.3333333  -0.1666667   0.0000000), wk =   0.0000000
        k(  285) = (  -0.5000000   0.3333333   0.0000000), wk =   0.0123457
        k(  286) = (  -0.5000000   0.6666667   0.0000000), wk =   0.0000000
        k(  287) = (   0.3333333   0.1666667   0.0000000), wk =   0.0123457
        k(  288) = (   0.3333333   0.5000000   0.0000000), wk =   0.0000000
        k(  289) = (  -0.1666667  -0.3333333   0.0000000), wk =   0.0123457
        k(  290) = (  -0.1666667   0.0000000   0.0000000), wk =   0.0000000
        k(  291) = (  -0.5555556   0.1666667   0.0000000), wk =   0.0123457
        k(  292) = (  -0.5555556   0.5000000   0.0000000), wk =   0.0000000
        k(  293) = (   0.3888889  -0.5555556   0.0000000), wk =   0.0123457
        k(  294) = (   0.3888889  -0.2222222   0.0000000), wk =   0.0000000
        k(  295) = (  -0.5555556   0.3888889   0.0000000), wk =   0.0123457
        k(  296) = (  -0.5555556   0.7222222   0.0000000), wk =   0.0000000
        k(  297) = (   0.3888889   0.1666667   0.0000000), wk =   0.0123457
        k(  298) = (   0.3888889   0.5000000   0.0000000), wk =   0.0000000
        k(  299) = (  -0.1666667  -0.3888889   0.0000000), wk =   0.0123457
        k(  300) = (  -0.1666667  -0.0555556   0.0000000), wk =   0.0000000
        k(  301) = (  -0.4444444   0.2222222   0.0000000), wk =   0.0123457
        k(  302) = (  -0.4444444   0.5555556   0.0000000), wk =   0.0000000
        k(  303) = (   0.2222222  -0.4444444   0.0000000), wk =   0.0123457
        k(  304) = (   0.2222222  -0.1111111   0.0000000), wk =   0.0000000
        k(  305) = (  -0.5000000   0.2222222   0.0000000), wk =   0.0123457
        k(  306) = (  -0.5000000   0.5555556   0.0000000), wk =   0.0000000
        k(  307) = (   0.2777778  -0.5000000   0.0000000), wk =   0.0123457
        k(  308) = (   0.2777778  -0.1666667   0.0000000), wk =   0.0000000
        k(  309) = (  -0.5000000   0.2777778   0.0000000), wk =   0.0123457
        k(  310) = (  -0.5000000   0.6111111   0.0000000), wk =   0.0000000
        k(  311) = (   0.2777778   0.2222222   0.0000000), wk =   0.0123457
        k(  312) = (   0.2777778   0.5555556   0.0000000), wk =   0.0000000
        k(  313) = (  -0.2222222  -0.2777778   0.0000000), wk =   0.0123457
        k(  314) = (  -0.2222222   0.0555556   0.0000000), wk =   0.0000000
        k(  315) = (  -0.5555556   0.2222222   0.0000000), wk =   0.0123457
        k(  316) = (  -0.5555556   0.5555556   0.0000000), wk =   0.0000000
        k(  317) = (   0.3333333  -0.5555556   0.0000000), wk =   0.0123457
        k(  318) = (   0.3333333  -0.2222222   0.0000000), wk =   0.0000000
        k(  319) = (  -0.5555556   0.3333333   0.0000000), wk =   0.0123457
        k(  320) = (  -0.5555556   0.6666667   0.0000000), wk =   0.0000000
        k(  321) = (   0.3333333   0.2222222   0.0000000), wk =   0.0123457
        k(  322) = (   0.3333333   0.5555556   0.0000000), wk =   0.0000000
        k(  323) = (  -0.2222222  -0.3333333   0.0000000), wk =   0.0123457
        k(  324) = (  -0.2222222  -0.0000000   0.0000000), wk =   0.0000000
        k(  325) = (  -0.6111111   0.2222222   0.0000000), wk =   0.0123457
        k(  326) = (  -0.6111111   0.5555556   0.0000000), wk =   0.0000000
        k(  327) = (   0.3888889  -0.6111111   0.0000000), wk =   0.0123457
        k(  328) = (   0.3888889  -0.2777778   0.0000000), wk =   0.0000000
        k(  329) = (  -0.5555556   0.2777778   0.0000000), wk =   0.0123457
        k(  330) = (  -0.5555556   0.6111111   0.0000000), wk =   0.0000000
        k(  331) = (   0.2777778  -0.5555556   0.0000000), wk =   0.0123457
        k(  332) = (   0.2777778  -0.2222222   0.0000000), wk =   0.0000000
        k(  333) = (  -0.6111111   0.2777778   0.0000000), wk =   0.0123457
        k(  334) = (  -0.6111111   0.6111111   0.0000000), wk =   0.0000000
        k(  335) = (   0.3333333  -0.6111111   0.0000000), wk =   0.0123457
        k(  336) = (   0.3333333  -0.2777778   0.0000000), wk =   0.0000000
        k(  337) = (  -0.6111111   0.3333333   0.0000000), wk =   0.0123457
        k(  338) = (  -0.6111111   0.6666667   0.0000000), wk =   0.0000000
        k(  339) = (   0.3333333   0.2777778   0.0000000), wk =   0.0123457
        k(  340) = (   0.3333333   0.6111111   0.0000000), wk =   0.0000000
        k(  341) = (  -0.2777778  -0.3333333   0.0000000), wk =   0.0123457
        k(  342) = (  -0.2777778  -0.0000000   0.0000000), wk =   0.0000000

     PseudoPot. # 1 for C  read from file:
     ../pseudo/c_pbe_v1.2.uspp.F.UPF
     MD5 check sum: d1aef80898a10debaa0f26306b886e00
     Pseudo is Ultrasoft + core correction, Zval =  4.0
     Generated by new atomic code, or converted to UPF format
     Using radial grid of  721 points,  4 beta functions with: 
                l(1) =   0
                l(2) =   0
                l(3) =   1
                l(4) =   1
     Q(r) pseudized with  8 coefficients,  rinner =    1.100   1.100   1.100


     PseudoPot. # 2 for F  read from file:
     ../pseudo/f_pbe_v1.4.uspp.F.UPF
     MD5 check sum: 4c38b6a325caf53ec0e86aed9459de46
     Pseudo is Ultrasoft, Zval =  7.0
     Generated by new atomic code, or converted to UPF format
     Using radial grid of  799 points,  4 beta functions with: 
                l(1) =   0
                l(2) =   0
                l(3) =   1
                l(4) =   1
     Q(r) pseudized with  8 coefficients,  rinner =    0.950   0.950   0.950


     point group C_s (m)    
     there are  2 classes
     the character table:

       E     s    
A'     1.00  1.00
A''    1.00 -1.00

     the symmetry operations in each class and the name of the first element:

     E        1
                                                                 
     s        2
                                                                 


     Atomic displacements:
     There are   12 irreducible representations

     Representation     1      1 modes -  Not done in this run
     Irreps are as follows:

                     mode #   1
                     (   0.00000  -0.00000   ) 
                     (   0.00000  -0.00000   ) 
                     (   0.00000  -0.00000   ) 
                     (   0.00000  -0.00000   ) 
                     (   0.00000  -0.00000   ) 
                     (   0.00000  -0.00000   ) 
                     (   0.00000  -0.00000   ) 
                     (   0.00000  -0.00000   ) 
                     (   0.00000  -0.00000   ) 
                     (   0.00000   0.00000   ) 
                     (  -0.99544  -0.00000   ) 
                     (   0.08504  -0.04324   ) 

     Representation     2      1 modes -  To be done
     Irreps are as follows:

                     mode #   2
                     (   0.00000  -0.00000   ) 
                     (   0.00000  -0.00000   ) 
                     (   0.00000  -0.00000   ) 
                     (   0.00000  -0.00000   ) 
                     (   0.00000  -0.00000   ) 
                     (   0.00000  -0.00000   ) 
                     (   0.00000  -0.00000   ) 
                     (  -0.99948  -0.00000   ) 
                     (   0.01585   0.02794   ) 
                     (   0.00000  -0.00000   ) 
                     (   0.00000  -0.00000   ) 
                     (   0.00000  -0.00000   ) 

     Representation     3      1 modes -  Not done in this run
     Irreps are as follows:

                     mode #   3
                     (   0.00000   0.00000   ) 
                     (  -0.02178  -0.00000   ) 
                     (  -0.88928  -0.45685   ) 
                     (  -0.00000  -0.00000   ) 
                     (  -0.00000  -0.00000   ) 
                     (  -0.00000  -0.00000   ) 
                     (  -0.00000  -0.00000   ) 
                     (  -0.00000  -0.00000   ) 
                     (  -0.00000  -0.00000   ) 
                     (  -0.00000  -0.00000   ) 
                     (  -0.00000  -0.00000   ) 
                     (  -0.00000  -0.00000   ) 

     Representation     4      1 modes -  Not done in this run
     Irreps are as follows:

                     mode #   4
                     (  -0.00000  -0.00000   ) 
                     (  -0.00000  -0.00000   ) 
                     (  -0.00000  -0.00000   ) 
                     (  -0.00000  -0.00000   ) 
                     (  -0.00000  -0.00000   ) 
                     (  -0.00000  -0.00000   ) 
                     (  -0.00000  -0.00000   ) 
                     (  -0.00000  -0.00000   ) 
                     (  -0.00000  -0.00000   ) 
                     (   0.00000  -0.00000   ) 
                     (  -0.09540  -0.00000   ) 
                     (  -0.88733   0.45116   ) 

     Representation     5      1 modes -  Not done in this run
     Irreps are as follows:

                     mode #   5
                     (  -0.00000   0.00000   ) 
                     (  -0.00000   0.00000   ) 
                     (  -0.00000   0.00000   ) 
                     (  -0.00000   0.00000   ) 
                     (  -0.01177  -0.00000   ) 
                     (  -0.83739  -0.54648   ) 
                     (  -0.00000   0.00000   ) 
                     (  -0.00000   0.00000   ) 
                     (  -0.00000   0.00000   ) 
                     (  -0.00000   0.00000   ) 
                     (  -0.00000   0.00000   ) 
                     (  -0.00000   0.00000   ) 

     Representation     6      1 modes -  Not done in this run
     Irreps are as follows:

                     mode #   6
                     (  -0.00000   0.00000   ) 
                     (  -0.00000   0.00000   ) 
                     (  -0.00000   0.00000   ) 
                     (  -0.00000   0.00000   ) 
                     (  -0.00000   0.00000   ) 
                     (  -0.00000   0.00000   ) 
                     (  -0.00000   0.00000   ) 
                     (  -0.03212   0.00000   ) 
                     (  -0.49320  -0.86932   ) 
                     (  -0.00000   0.00000   ) 
                     (  -0.00000   0.00000   ) 
                     (  -0.00000   0.00000   ) 

     Representation     7      1 modes -  Not done in this run
     Irreps are as follows:

                     mode #   7
                     (   0.00000   0.00000   ) 
                     (  -0.99976  -0.00000   ) 
                     (   0.01937   0.00995   ) 
                     (  -0.00000   0.00000   ) 
                     (  -0.00000   0.00000   ) 
                     (  -0.00000   0.00000   ) 
                     (  -0.00000   0.00000   ) 
                     (  -0.00000   0.00000   ) 
                     (  -0.00000   0.00000   ) 
                     (  -0.00000   0.00000   ) 
                     (  -0.00000   0.00000   ) 
                     (  -0.00000   0.00000   ) 

     Representation     8      1 modes -  Not done in this run
     Irreps are as follows:

                     mode #   8
                     (   0.00000  -0.00000   ) 
                     (   0.00000  -0.00000   ) 
                     (   0.00000  -0.00000   ) 
                     (   0.00000  -0.00000   ) 
                     (  -0.99993   0.00000   ) 
                     (   0.00986   0.00643   ) 
                     (   0.00000  -0.00000   ) 
                     (   0.00000  -0.00000   ) 
                     (   0.00000  -0.00000   ) 
                     (   0.00000  -0.00000   ) 
                     (   0.00000  -0.00000   ) 
                     (   0.00000  -0.00000   ) 

     Representation     9      1 modes -  Not done in this run
     Irreps are as follows:

                     mode #   9
                     (  -0.00000   0.00000   ) 
                     (  -0.00000   0.00000   ) 
                     (  -0.00000   0.00000   ) 
                     (  -1.00000  -0.00000   ) 
                     (  -0.00000   0.00000   ) 
                     (  -0.00000   0.00000   ) 
                     (  -0.00000   0.00000   ) 
                     (  -0.00000   0.00000   ) 
                     (  -0.00000   0.00000   ) 
                     (  -0.00000   0.00000   ) 
                     (  -0.00000   0.00000   ) 
                     (  -0.00000   0.00000   ) 

     Representation    10      1 modes -  Not done in this run
     Irreps are as follows:

                     mode #  10
                     (  -0.00000   0.00000   ) 
                     (  -0.00000   0.00000   ) 
                     (  -0.00000   0.00000   ) 
                     (  -0.00000   0.00000   ) 
                     (  -0.00000   0.00000   ) 
                     (  -0.00000   0.00000   ) 
                     (  -1.00000  -0.00000   ) 
                     (  -0.00000   0.00000   ) 
                     (  -0.00000   0.00000   ) 
                     (  -0.00000   0.00000   ) 
                     (  -0.00000   0.00000   ) 
                     (  -0.00000   0.00000   ) 

     Representation    11      1 modes -  Not done in this run
     Irreps are as follows:

                     mode #  11
                     (  -0.00000  -0.00000   ) 
                     (  -0.00000  -0.00000   ) 
                     (  -0.00000  -0.00000   ) 
                     (  -0.00000  -0.00000   ) 
                     (  -0.00000  -0.00000   ) 
                     (  -0.00000  -0.00000   ) 
                     (  -0.00000  -0.00000   ) 
                     (  -0.00000  -0.00000   ) 
                     (  -0.00000  -0.00000   ) 
                     (  -1.00000  -0.00000   ) 
                     (  -0.00000   0.00000   ) 
                     (  -0.00000   0.00000   ) 

     Representation    12      1 modes -  Not done in this run
     Irreps are as follows:

                     mode #  12
                     (  -1.00000  -0.00000   ) 
                     (  -0.00000  -0.00000   ) 
                     (  -0.00000   0.00000   ) 
                     (  -0.00000   0.00000   ) 
                     (  -0.00000   0.00000   ) 
                     (  -0.00000   0.00000   ) 
                     (  -0.00000   0.00000   ) 
                     (  -0.00000   0.00000   ) 
                     (  -0.00000   0.00000   ) 
                     (  -0.00000   0.00000   ) 
                     (  -0.00000   0.00000   ) 
                     (  -0.00000   0.00000   ) 

     Compute atoms:     3,


     PHONON       :     50.78s CPU   1m46.81s WALL



     Representation #   2 mode #   2

     Self-consistent Calculation

      iter #   3 total cpu time :   606.8 secs   av.it.:   3.3
      thresh= 4.260E-05 alpha_mix =  0.700 |ddv_scf|^2 =  1.163E-08

      iter #   4 total cpu time :  2208.2 secs   av.it.:  13.4
      thresh= 1.078E-05 alpha_mix =  0.700 |ddv_scf|^2 =  3.661E-10

      iter #   5 total cpu time :  3841.1 secs   av.it.:  13.8
      thresh= 1.913E-06 alpha_mix =  0.700 |ddv_scf|^2 =  2.645E-11

      iter #   6 total cpu time :  5451.3 secs   av.it.:  13.7
      thresh= 5.143E-07 alpha_mix =  0.700 |ddv_scf|^2 =  1.237E-12

      iter #   7 total cpu time :  7204.0 secs   av.it.:  14.2
      thresh= 1.112E-07 alpha_mix =  0.700 |ddv_scf|^2 =  8.103E-13

     End of self-consistent calculation

     Convergence has been achieved 

     Not diagonalizing because representation    0 is not done

     PHONON       :      1h 7m CPU      2h 1m WALL

     INITIALIZATION: 
     phq_setup    :      0.32s CPU      0.41s WALL (       1 calls)
     phq_init     :     46.36s CPU    100.83s WALL (       1 calls)

     phq_init     :     46.36s CPU    100.83s WALL (       1 calls)
     set_drhoc    :      0.47s CPU      0.48s WALL (       1 calls)
     init_vloc    :      0.40s CPU      0.41s WALL (       2 calls)
     init_us_1    :      0.10s CPU      0.10s WALL (       2 calls)
     init_us_2    :      5.80s CPU     11.11s WALL (    1368 calls)
     newd         :      0.48s CPU      0.90s WALL (       2 calls)

     DYNAMICAL MATRIX:
     phqscf       :   4012.55s CPU   7177.92s WALL (       1 calls)
     dynmatrix    :      0.01s CPU      0.85s WALL (       1 calls)

     phqscf       :   4012.55s CPU   7177.92s WALL (       1 calls)
     solve_linter :   3971.73s CPU   7098.45s WALL (       1 calls)
     drhodv       :     40.81s CPU     79.29s WALL (       1 calls)



     phqscf       :   4012.55s CPU   7177.92s WALL (       1 calls)
     solve_linter :   3971.73s CPU   7098.45s WALL (       1 calls)

     solve_linter :   3971.73s CPU   7098.45s WALL (       1 calls)
     dvqpsi_us    :     33.08s CPU     44.55s WALL (     171 calls)
     sth_kernel   :   3933.00s CPU   7037.85s WALL (       5 calls)
     apply_dpot_b :     74.98s CPU    100.27s WALL (     855 calls)
     ortho        :     37.56s CPU     67.63s WALL (     855 calls)
     cgsolve      :   3673.17s CPU   6629.46s WALL (     855 calls)
     incdrhoscf   :    113.38s CPU    160.06s WALL (     855 calls)
     addusddens   :      1.76s CPU      3.85s WALL (       5 calls)
     dv_of_drho   :      0.50s CPU      0.57s WALL (       5 calls)
     mix_pot      :      0.10s CPU      1.27s WALL (       5 calls)
     psymdvscf    :      0.90s CPU      1.33s WALL (       5 calls)
     newdq        :      0.94s CPU      0.95s WALL (       5 calls)
     adddvscf     :     15.55s CPU     36.57s WALL (     855 calls)
     drhodvus     :      0.05s CPU      0.66s WALL (       1 calls)

     dvqpsi_us    :     33.08s CPU     44.55s WALL (     171 calls)
     dvqpsi_us_on :      3.00s CPU      6.97s WALL (     171 calls)

     cgsolve      :   3673.17s CPU   6629.46s WALL (     855 calls)
     ch_psi       :   2435.10s CPU   4145.34s WALL (   14058 calls)

     ch_psi       :   2435.10s CPU   4145.34s WALL (   14058 calls)
     h_psi        :   1796.88s CPU   2944.28s WALL (   14058 calls)
     last         :    585.99s CPU   1133.04s WALL (   14058 calls)

     h_psi        :   1796.88s CPU   2944.28s WALL (   14058 calls)
     add_vuspsi   :     49.99s CPU     74.67s WALL (   14058 calls)

     incdrhoscf   :    113.38s CPU    160.06s WALL (     855 calls)
     addusdbec    :     16.01s CPU     42.23s WALL (     855 calls)

     drhodvus     :      0.05s CPU      0.66s WALL (       1 calls)

      General routines
     calbec       :    647.92s CPU   1442.74s WALL (   31194 calls)
     fft          :      1.38s CPU      1.84s WALL (     118 calls)
     ffts         :     12.82s CPU     18.04s WALL (     183 calls)
     fftw         :   1586.67s CPU   2312.15s WALL (  269392 calls)
     davcio       :      5.31s CPU     32.90s WALL (    5189 calls)
     write_rec    :      0.01s CPU      1.57s WALL (       6 calls)


     PHONON       :      1h 7m CPU      2h 1m WALL


   This run was terminated on:  23:50:19  29Feb2024            

=------------------------------------------------------------------------------=
   JOB DONE.
=------------------------------------------------------------------------------=
