
     Program PHONON v.7.1 starts on  1Mar2024 at 13:17: 3 

     This program is part of the open-source Quantum ESPRESSO suite
     for quantum simulation of materials; please cite
         "P. Giannozzi et al., J. Phys.:Condens. Matter 21 395502 (2009);
         "P. Giannozzi et al., J. Phys.:Condens. Matter 29 465901 (2017);
         "P. Giannozzi et al., J. Chem. Phys. 152 154105 (2020);
          URL http://www.quantum-espresso.org", 
     in publications or presentations arising from this work. More details at
     http://www.quantum-espresso.org/quote

     Parallel version (MPI), running on     8 processors

     MPI processes distributed on     1 nodes
     R & G space division:  proc/nbgrp/npool/nimage =       8
     350091 MiB available memory on the printing compute node when the environment starts

     Reading input from input.9.3
      Title line not specified: using 'default'.

     Reading xml data from directory:

     /home/ext_chineason_graduate_utm_my/fgc/tmp/9.3/fgc.save/

     IMPORTANT: XC functional enforced from input :
     Exchange-correlation= PBE
                           (   1   4   3   4   0   0   0)
     Any further DFT definition will be discarded
     Please, verify this is what you really want


     Parallelization info
     --------------------
     sticks:   dense  smooth     PW     G-vecs:    dense   smooth      PW
     Min         416     416    114               138498   138498   19368
     Max         417     417    115               138521   138521   19383
     Sum        3331    3331    913              1108055  1108055  154987

     Using Slab Decomposition

 ----2D----2D----2D----2D----2D----2D----2D----2D----2D----2D----2D----2D
  The code is running with the 2D cutoff
  Please refer to:
  Sohier, T., Calandra, M., & Mauri, F. (2017), 
  Density functional perturbation theory for gated two-dimensional heterostructures:
  Theoretical developments and application to flexural phonons in graphene.
  Physical Review B, 96(7), 75448. https://doi.org/10.1103/PhysRevB.96.075448
 ----2D----2D----2D----2D----2D----2D----2D----2D----2D----2D----2D----2D

     negative rho (up, down):  5.457E-06 0.000E+00
     Reading collected, re-writing distributed wavefunctions
        1 /  12 q-points for this run, from  9 to  9:
       N       xq(1)         xq(2)         xq(3) 
       1   0.000000000   0.000000000   0.000000000
       2   0.000000000   0.128300060   0.000000000
       3   0.000000000   0.256600120   0.000000000
       4   0.000000000   0.384900179   0.000000000
       5   0.000000000   0.513200239   0.000000000
       6   0.111111111   0.192450090   0.000000000
       7   0.111111111   0.320750150   0.000000000
       8   0.111111111   0.449050209   0.000000000
       9   0.111111111   0.577350269   0.000000000
      10   0.222222222   0.384900179   0.000000000
      11   0.222222222   0.513200239   0.000000000
      12   0.333333333   0.577350269   0.000000000


     Calculation of q =    0.1111111   0.5773503   0.0000000
     Subspace diagonalization in iterative solution of the eigenvalue problem:
     a serial algorithm will be used


     Parallelization info
     --------------------
     sticks:   dense  smooth     PW     G-vecs:    dense   smooth      PW
     Min         416     416    119               138498   138498   21257
     Max         417     417    120               138521   138521   21294
     Sum        3331    3331    955              1108055  1108055  170181

     Using Slab Decomposition


     Title: 
     default                                                                    


     bravais-lattice index     =            4
     lattice parameter (alat)  =       4.9233  a.u.
     unit-cell volume          =     733.8532 (a.u.)^3
     number of atoms/cell      =            4
     number of atomic types    =            2
     number of electrons       =        22.00
     number of Kohn-Sham states=           15
     kinetic-energy cutoff     =     500.0000  Ry
     charge density cutoff     =    2000.0000  Ry
     Exchange-correlation= PBE
                           (   1   4   3   4   0   0   0)

     celldm(1)=   4.923251  celldm(2)=   0.000000  celldm(3)=   7.101051
     celldm(4)=   0.000000  celldm(5)=   0.000000  celldm(6)=   0.000000

     crystal axes: (cart. coord. in units of alat)
               a(1) = (   1.000000   0.000000   0.000000 )  
               a(2) = (  -0.500000   0.866025   0.000000 )  
               a(3) = (   0.000000   0.000000   7.101051 )  

     reciprocal axes: (cart. coord. in units 2 pi/alat)
               b(1) = (  1.000000  0.577350 -0.000000 )  
               b(2) = (  0.000000  1.154701  0.000000 )  
               b(3) = (  0.000000 -0.000000  0.140824 )  


     PseudoPot. # 1 for C  read from file:
     ../pseudo/c_pbe_v1.2.uspp.F.UPF
     MD5 check sum: d1aef80898a10debaa0f26306b886e00
     Pseudo is Ultrasoft + core correction, Zval =  4.0
     Generated by new atomic code, or converted to UPF format
     Using radial grid of  721 points,  4 beta functions with: 
                l(1) =   0
                l(2) =   0
                l(3) =   1
                l(4) =   1
     Q(r) pseudized with  8 coefficients,  rinner =    1.100   1.100   1.100


     PseudoPot. # 2 for F  read from file:
     ../pseudo/f_pbe_v1.4.uspp.F.UPF
     MD5 check sum: 4c38b6a325caf53ec0e86aed9459de46
     Pseudo is Ultrasoft, Zval =  7.0
     Generated by new atomic code, or converted to UPF format
     Using radial grid of  799 points,  4 beta functions with: 
                l(1) =   0
                l(2) =   0
                l(3) =   1
                l(4) =   1
     Q(r) pseudized with  8 coefficients,  rinner =    0.950   0.950   0.950


     atomic species   valence    mass     pseudopotential
        C              4.00    12.01070     C ( 1.00)
        F              7.00    18.99840     F ( 1.00)

     12 Sym. Ops., with inversion, found


                                    s                        frac. trans.

      isym =  1     identity                                     

 cryst.   s( 1) = (     1          0          0      )
                  (     0          1          0      )
                  (     0          0          1      )

 cart.    s( 1) = (  1.0000000  0.0000000  0.0000000 )
                  (  0.0000000  1.0000000  0.0000000 )
                  (  0.0000000  0.0000000  1.0000000 )


      isym =  2     180 deg rotation - cart. axis [1,0,0]        

 cryst.   s( 2) = (     1          0          0      )
                  (    -1         -1          0      )
                  (     0          0         -1      )

 cart.    s( 2) = (  1.0000000  0.0000000  0.0000000 )
                  (  0.0000000 -1.0000000  0.0000000 )
                  (  0.0000000  0.0000000 -1.0000000 )


      isym =  3     120 deg rotation - cryst. axis [0,0,1]       

 cryst.   s( 3) = (     0          1          0      )    f =( -0.5000000 )
                  (    -1         -1          0      )       ( -0.5000000 )
                  (     0          0          1      )       (  0.0000000 )

 cart.    s( 3) = ( -0.5000000 -0.8660254  0.0000000 )    f =( -0.2500000 )
                  (  0.8660254 -0.5000000  0.0000000 )       ( -0.4330127 )
                  (  0.0000000  0.0000000  1.0000000 )       (  0.0000000 )


      isym =  4     120 deg rotation - cryst. axis [0,0,-1]      

 cryst.   s( 4) = (    -1         -1          0      )    f =(  0.0000000 )
                  (     1          0          0      )       ( -0.5000000 )
                  (     0          0          1      )       (  0.0000000 )

 cart.    s( 4) = ( -0.5000000  0.8660254  0.0000000 )    f =(  0.2500000 )
                  ( -0.8660254 -0.5000000  0.0000000 )       ( -0.4330127 )
                  (  0.0000000  0.0000000  1.0000000 )       (  0.0000000 )


      isym =  5     180 deg rotation - cryst. axis [0,1,0]       

 cryst.   s( 5) = (    -1         -1          0      )    f =(  0.0000000 )
                  (     0          1          0      )       ( -0.5000000 )
                  (     0          0         -1      )       (  0.0000000 )

 cart.    s( 5) = ( -0.5000000 -0.8660254  0.0000000 )    f =(  0.2500000 )
                  ( -0.8660254  0.5000000  0.0000000 )       ( -0.4330127 )
                  (  0.0000000  0.0000000 -1.0000000 )       (  0.0000000 )


      isym =  6     180 deg rotation - cryst. axis [1,1,0]       

 cryst.   s( 6) = (     0          1          0      )    f =(  0.5000000 )
                  (     1          0          0      )       (  0.5000000 )
                  (     0          0         -1      )       (  0.0000000 )

 cart.    s( 6) = ( -0.5000000  0.8660254  0.0000000 )    f =(  0.2500000 )
                  (  0.8660254  0.5000000  0.0000000 )       (  0.4330127 )
                  (  0.0000000  0.0000000 -1.0000000 )       (  0.0000000 )


      isym =  7     inversion                                    

 cryst.   s( 7) = (    -1          0          0      )
                  (     0         -1          0      )
                  (     0          0         -1      )

 cart.    s( 7) = ( -1.0000000  0.0000000  0.0000000 )
                  (  0.0000000 -1.0000000  0.0000000 )
                  (  0.0000000  0.0000000 -1.0000000 )


      isym =  8     inv. 180 deg rotation - cart. axis [1,0,0]   

 cryst.   s( 8) = (    -1          0          0      )
                  (     1          1          0      )
                  (     0          0          1      )

 cart.    s( 8) = ( -1.0000000 -0.0000000  0.0000000 )
                  (  0.0000000  1.0000000  0.0000000 )
                  (  0.0000000  0.0000000  1.0000000 )


      isym =  9     inv. 120 deg rotation - cryst. axis [0,0,1]  

 cryst.   s( 9) = (     0         -1          0      )    f =(  0.5000000 )
                  (     1          1          0      )       ( -0.5000000 )
                  (     0          0         -1      )       (  0.0000000 )

 cart.    s( 9) = (  0.5000000  0.8660254  0.0000000 )    f =(  0.7500000 )
                  ( -0.8660254  0.5000000  0.0000000 )       ( -0.4330127 )
                  (  0.0000000  0.0000000 -1.0000000 )       (  0.0000000 )


      isym = 10     inv. 120 deg rotation - cryst. axis [0,0,-1] 

 cryst.   s(10) = (     1          1          0      )    f =(  0.0000000 )
                  (    -1          0          0      )       (  0.5000000 )
                  (     0          0         -1      )       (  0.0000000 )

 cart.    s(10) = (  0.5000000 -0.8660254  0.0000000 )    f =( -0.2500000 )
                  (  0.8660254  0.5000000  0.0000000 )       (  0.4330127 )
                  (  0.0000000  0.0000000 -1.0000000 )       (  0.0000000 )


      isym = 11     inv. 180 deg rotation - cryst. axis [0,1,0]  

 cryst.   s(11) = (     1          1          0      )    f =(  0.0000000 )
                  (     0         -1          0      )       ( -0.5000000 )
                  (     0          0          1      )       (  0.0000000 )

 cart.    s(11) = (  0.5000000  0.8660254  0.0000000 )    f =(  0.2500000 )
                  (  0.8660254 -0.5000000  0.0000000 )       ( -0.4330127 )
                  (  0.0000000  0.0000000  1.0000000 )       (  0.0000000 )


      isym = 12     inv. 180 deg rotation - cryst. axis [1,1,0]  

 cryst.   s(12) = (     0         -1          0      )    f =( -0.5000000 )
                  (    -1          0          0      )       ( -0.5000000 )
                  (     0          0          1      )       (  0.0000000 )

 cart.    s(12) = (  0.5000000 -0.8660254  0.0000000 )    f =( -0.2500000 )
                  ( -0.8660254 -0.5000000  0.0000000 )       ( -0.4330127 )
                  (  0.0000000  0.0000000  1.0000000 )       (  0.0000000 )


     point group D_3d (-3m) 
     there are  6 classes
     the character table:

       E     2C3   3C2'  i     2S6   3s_d 
A_1g   1.00  1.00  1.00  1.00  1.00  1.00
A_2g   1.00  1.00 -1.00  1.00  1.00 -1.00
E_g    2.00 -1.00  0.00  2.00 -1.00  0.00
A_1u   1.00  1.00  1.00 -1.00 -1.00 -1.00
A_2u   1.00  1.00 -1.00 -1.00 -1.00  1.00
E_u    2.00 -1.00  0.00 -2.00  1.00  0.00

     the symmetry operations in each class and the name of the first element:

     E        1
          identity                                               
     2C3      3    4
          120 deg rotation - cryst. axis [0,0,1]                 
     3C2'     2    5    6
          180 deg rotation - cart. axis [1,0,0]                  
     i        7
          inversion                                              
     2S6      9   10
          inv. 120 deg rotation - cryst. axis [0,0,1]            
     3s_d     8   11   12
          inv. 180 deg rotation - cart. axis [1,0,0]             

   Cartesian axes

     site n.     atom                  positions (alat units)
         1           C   tau(   1) = (   0.5000000   0.5773503  -0.0938425  )
         2           C   tau(   2) = (  -0.0000000   0.2886751   0.0938425  )
         3           F   tau(   3) = (   0.5000000   0.5773503  -0.6234719  )
         4           F   tau(   4) = (  -0.0000000   0.2886751   0.6234719  )

   Crystallographic axes

     site n.     atom                  positions (cryst. coord.)
         1           C   tau(   1) = (  0.8333333  0.6666667 -0.0132153  )
         2           C   tau(   2) = (  0.1666667  0.3333333  0.0132153  )
         3           F   tau(   3) = (  0.8333333  0.6666667 -0.0877999  )
         4           F   tau(   4) = (  0.1666667  0.3333333  0.0877999  )

     number of k points=   342  Marzari-Vanderbilt smearing, width (Ry)=  0.0010
                       cart. coord. in units 2pi/alat
        k(    1) = (   0.0000000   0.0000000   0.0000000), wk =   0.0061728
        k(    2) = (   0.1111111   0.5773503   0.0000000), wk =   0.0000000
        k(    3) = (   0.0000000   0.0641500   0.0000000), wk =   0.0123457
        k(    4) = (   0.1111111   0.6415003   0.0000000), wk =   0.0000000
        k(    5) = (   0.0000000   0.1283001   0.0000000), wk =   0.0123457
        k(    6) = (   0.1111111   0.7056503   0.0000000), wk =   0.0000000
        k(    7) = (   0.0000000   0.1924501   0.0000000), wk =   0.0123457
        k(    8) = (   0.1111111   0.7698004   0.0000000), wk =   0.0000000
        k(    9) = (   0.0000000   0.2566001   0.0000000), wk =   0.0123457
        k(   10) = (   0.1111111   0.8339504   0.0000000), wk =   0.0000000
        k(   11) = (   0.0000000   0.3207501   0.0000000), wk =   0.0123457
        k(   12) = (   0.1111111   0.8981004   0.0000000), wk =   0.0000000
        k(   13) = (   0.0000000   0.3849002   0.0000000), wk =   0.0123457
        k(   14) = (   0.1111111   0.9622504   0.0000000), wk =   0.0000000
        k(   15) = (   0.0000000   0.4490502   0.0000000), wk =   0.0123457
        k(   16) = (   0.1111111   1.0264005   0.0000000), wk =   0.0000000
        k(   17) = (   0.0000000   0.5132002   0.0000000), wk =   0.0123457
        k(   18) = (   0.1111111   1.0905505   0.0000000), wk =   0.0000000
        k(   19) = (   0.0000000  -0.5773503   0.0000000), wk =   0.0061728
        k(   20) = (   0.1111111   0.0000000   0.0000000), wk =   0.0000000
        k(   21) = (   0.0555556   0.0962250   0.0000000), wk =   0.0123457
        k(   22) = (   0.1666667   0.6735753   0.0000000), wk =   0.0000000
        k(   23) = (   0.0555556   0.1603751   0.0000000), wk =   0.0123457
        k(   24) = (   0.1666667   0.7377253   0.0000000), wk =   0.0000000
        k(   25) = (   0.0555556   0.2245251   0.0000000), wk =   0.0123457
        k(   26) = (   0.1666667   0.8018754   0.0000000), wk =   0.0000000
        k(   27) = (   0.0555556   0.2886751   0.0000000), wk =   0.0123457
        k(   28) = (   0.1666667   0.8660254   0.0000000), wk =   0.0000000
        k(   29) = (   0.0555556   0.3528252   0.0000000), wk =   0.0123457
        k(   30) = (   0.1666667   0.9301754   0.0000000), wk =   0.0000000
        k(   31) = (   0.0555556   0.4169752   0.0000000), wk =   0.0123457
        k(   32) = (   0.1666667   0.9943255   0.0000000), wk =   0.0000000
        k(   33) = (   0.0555556   0.4811252   0.0000000), wk =   0.0123457
        k(   34) = (   0.1666667   1.0584755   0.0000000), wk =   0.0000000
        k(   35) = (   0.0555556   0.5452753   0.0000000), wk =   0.0123457
        k(   36) = (   0.1666667   1.1226255   0.0000000), wk =   0.0000000
        k(   37) = (   0.1111111   0.1924501   0.0000000), wk =   0.0123457
        k(   38) = (   0.2222222   0.7698004   0.0000000), wk =   0.0000000
        k(   39) = (   0.1111111   0.2566001   0.0000000), wk =   0.0123457
        k(   40) = (   0.2222222   0.8339504   0.0000000), wk =   0.0000000
        k(   41) = (   0.1111111   0.3207501   0.0000000), wk =   0.0123457
        k(   42) = (   0.2222222   0.8981004   0.0000000), wk =   0.0000000
        k(   43) = (   0.1111111   0.3849002   0.0000000), wk =   0.0123457
        k(   44) = (   0.2222222   0.9622504   0.0000000), wk =   0.0000000
        k(   45) = (   0.1111111   0.4490502   0.0000000), wk =   0.0123457
        k(   46) = (   0.2222222   1.0264005   0.0000000), wk =   0.0000000
        k(   47) = (   0.1111111   0.5132002   0.0000000), wk =   0.0123457
        k(   48) = (   0.2222222   1.0905505   0.0000000), wk =   0.0000000
        k(   49) = (   0.1111111   0.5773503   0.0000000), wk =   0.0061728
        k(   50) = (   0.2222222   1.1547005   0.0000000), wk =   0.0000000
        k(   51) = (   0.1666667   0.2886751   0.0000000), wk =   0.0123457
        k(   52) = (   0.2777778   0.8660254   0.0000000), wk =   0.0000000
        k(   53) = (   0.1666667   0.3528252   0.0000000), wk =   0.0123457
        k(   54) = (   0.2777778   0.9301754   0.0000000), wk =   0.0000000
        k(   55) = (   0.1666667   0.4169752   0.0000000), wk =   0.0123457
        k(   56) = (   0.2777778   0.9943255   0.0000000), wk =   0.0000000
        k(   57) = (   0.1666667   0.4811252   0.0000000), wk =   0.0123457
        k(   58) = (   0.2777778   1.0584755   0.0000000), wk =   0.0000000
        k(   59) = (   0.1666667   0.5452753   0.0000000), wk =   0.0123457
        k(   60) = (   0.2777778   1.1226255   0.0000000), wk =   0.0000000
        k(   61) = (   0.2222222   0.3849002   0.0000000), wk =   0.0123457
        k(   62) = (   0.3333333   0.9622504   0.0000000), wk =   0.0000000
        k(   63) = (   0.2222222   0.4490502   0.0000000), wk =   0.0123457
        k(   64) = (   0.3333333   1.0264005   0.0000000), wk =   0.0000000
        k(   65) = (   0.2222222   0.5132002   0.0000000), wk =   0.0123457
        k(   66) = (   0.3333333   1.0905505   0.0000000), wk =   0.0000000
        k(   67) = (   0.2222222   0.5773503   0.0000000), wk =   0.0061728
        k(   68) = (   0.3333333   1.1547005   0.0000000), wk =   0.0000000
        k(   69) = (   0.2777778   0.4811252   0.0000000), wk =   0.0123457
        k(   70) = (   0.3888889   1.0584755   0.0000000), wk =   0.0000000
        k(   71) = (   0.2777778   0.5452753   0.0000000), wk =   0.0123457
        k(   72) = (   0.3888889   1.1226255   0.0000000), wk =   0.0000000
        k(   73) = (   0.3333333   0.5773503   0.0000000), wk =   0.0061728
        k(   74) = (   0.4444444   1.1547005   0.0000000), wk =   0.0000000
        k(   75) = (  -0.0555556  -0.0320750   0.0000000), wk =   0.0123457
        k(   76) = (   0.0555556   0.5452753   0.0000000), wk =   0.0000000
        k(   77) = (   0.0555556  -0.0320750   0.0000000), wk =   0.0123457
        k(   78) = (   0.1666667   0.5452753   0.0000000), wk =   0.0000000
        k(   79) = (  -0.1111111  -0.0641500   0.0000000), wk =   0.0123457
        k(   80) = (   0.0000000   0.5132002   0.0000000), wk =   0.0000000
        k(   81) = (   0.1111111  -0.0641500   0.0000000), wk =   0.0123457
        k(   82) = (   0.2222222   0.5132002   0.0000000), wk =   0.0000000
        k(   83) = (  -0.1666667  -0.0962250   0.0000000), wk =   0.0123457
        k(   84) = (  -0.0555556   0.4811252   0.0000000), wk =   0.0000000
        k(   85) = (   0.1666667  -0.0962250   0.0000000), wk =   0.0123457
        k(   86) = (   0.2777778   0.4811252   0.0000000), wk =   0.0000000
        k(   87) = (  -0.2222222  -0.1283001   0.0000000), wk =   0.0123457
        k(   88) = (  -0.1111111   0.4490502   0.0000000), wk =   0.0000000
        k(   89) = (   0.2222222  -0.1283001   0.0000000), wk =   0.0123457
        k(   90) = (   0.3333333   0.4490502   0.0000000), wk =   0.0000000
        k(   91) = (  -0.2777778  -0.1603751   0.0000000), wk =   0.0123457
        k(   92) = (  -0.1666667   0.4169752   0.0000000), wk =   0.0000000
        k(   93) = (   0.2777778  -0.1603751   0.0000000), wk =   0.0123457
        k(   94) = (   0.3888889   0.4169752   0.0000000), wk =   0.0000000
        k(   95) = (  -0.3333333  -0.1924501   0.0000000), wk =   0.0123457
        k(   96) = (  -0.2222222   0.3849002   0.0000000), wk =   0.0000000
        k(   97) = (   0.3333333  -0.1924501   0.0000000), wk =   0.0123457
        k(   98) = (   0.4444444   0.3849002   0.0000000), wk =   0.0000000
        k(   99) = (  -0.3888889  -0.2245251   0.0000000), wk =   0.0123457
        k(  100) = (  -0.2777778   0.3528252   0.0000000), wk =   0.0000000
        k(  101) = (   0.3888889  -0.2245251   0.0000000), wk =   0.0123457
        k(  102) = (   0.5000000   0.3528252   0.0000000), wk =   0.0000000
        k(  103) = (  -0.4444444  -0.2566001   0.0000000), wk =   0.0123457
        k(  104) = (  -0.3333333   0.3207501   0.0000000), wk =   0.0000000
        k(  105) = (   0.4444444  -0.2566001   0.0000000), wk =   0.0123457
        k(  106) = (   0.5555556   0.3207501   0.0000000), wk =   0.0000000
        k(  107) = (   0.5000000   0.2886751   0.0000000), wk =   0.0123457
        k(  108) = (   0.6111111   0.8660254   0.0000000), wk =   0.0000000
        k(  109) = (  -0.1111111  -0.0000000   0.0000000), wk =   0.0061728
        k(  110) = (   0.0000000   0.5773503   0.0000000), wk =   0.0000000
        k(  111) = (  -0.0555556  -0.0962250   0.0000000), wk =   0.0123457
        k(  112) = (   0.0555556   0.4811252   0.0000000), wk =   0.0000000
        k(  113) = (   0.1111111   0.0000000   0.0000000), wk =   0.0061728
        k(  114) = (   0.2222222   0.5773503   0.0000000), wk =   0.0000000
        k(  115) = (  -0.1666667  -0.0320750   0.0000000), wk =   0.0123457
        k(  116) = (  -0.0555556   0.5452753   0.0000000), wk =   0.0000000
        k(  117) = (   0.1111111  -0.1283001   0.0000000), wk =   0.0123457
        k(  118) = (   0.2222222   0.4490502   0.0000000), wk =   0.0000000
        k(  119) = (  -0.0555556  -0.1603751   0.0000000), wk =   0.0123457
        k(  120) = (   0.0555556   0.4169752   0.0000000), wk =   0.0000000
        k(  121) = (   0.1666667   0.0320750   0.0000000), wk =   0.0123457
        k(  122) = (   0.2777778   0.6094253   0.0000000), wk =   0.0000000
        k(  123) = (  -0.1111111   0.1283001   0.0000000), wk =   0.0123457
        k(  124) = (   0.0000000   0.7056503   0.0000000), wk =   0.0000000
        k(  125) = (  -0.2222222  -0.0641500   0.0000000), wk =   0.0123457
        k(  126) = (  -0.1111111   0.5132002   0.0000000), wk =   0.0000000
        k(  127) = (   0.1666667  -0.1603751   0.0000000), wk =   0.0123457
        k(  128) = (   0.2777778   0.4169752   0.0000000), wk =   0.0000000
        k(  129) = (  -0.0555556  -0.2245251   0.0000000), wk =   0.0123457
        k(  130) = (   0.0555556   0.3528252   0.0000000), wk =   0.0000000
        k(  131) = (   0.2222222   0.0641500   0.0000000), wk =   0.0123457
        k(  132) = (   0.3333333   0.6415003   0.0000000), wk =   0.0000000
        k(  133) = (  -0.1666667   0.1603751   0.0000000), wk =   0.0123457
        k(  134) = (  -0.0555556   0.7377253   0.0000000), wk =   0.0000000
        k(  135) = (  -0.2777778  -0.0962250   0.0000000), wk =   0.0123457
        k(  136) = (  -0.1666667   0.4811252   0.0000000), wk =   0.0000000
        k(  137) = (   0.2222222  -0.1924501   0.0000000), wk =   0.0123457
        k(  138) = (   0.3333333   0.3849002   0.0000000), wk =   0.0000000
        k(  139) = (  -0.0555556  -0.2886751   0.0000000), wk =   0.0123457
        k(  140) = (   0.0555556   0.2886751   0.0000000), wk =   0.0000000
        k(  141) = (   0.2777778   0.0962250   0.0000000), wk =   0.0123457
        k(  142) = (   0.3888889   0.6735753   0.0000000), wk =   0.0000000
        k(  143) = (  -0.2222222   0.1924501   0.0000000), wk =   0.0123457
        k(  144) = (  -0.1111111   0.7698004   0.0000000), wk =   0.0000000
        k(  145) = (  -0.3333333  -0.1283001   0.0000000), wk =   0.0123457
        k(  146) = (  -0.2222222   0.4490502   0.0000000), wk =   0.0000000
        k(  147) = (   0.2777778  -0.2245251   0.0000000), wk =   0.0123457
        k(  148) = (   0.3888889   0.3528252   0.0000000), wk =   0.0000000
        k(  149) = (  -0.0555556  -0.3528252   0.0000000), wk =   0.0123457
        k(  150) = (   0.0555556   0.2245251   0.0000000), wk =   0.0000000
        k(  151) = (   0.3333333   0.1283001   0.0000000), wk =   0.0123457
        k(  152) = (   0.4444444   0.7056503   0.0000000), wk =   0.0000000
        k(  153) = (  -0.2777778   0.2245251   0.0000000), wk =   0.0123457
        k(  154) = (  -0.1666667   0.8018754   0.0000000), wk =   0.0000000
        k(  155) = (  -0.3888889  -0.1603751   0.0000000), wk =   0.0123457
        k(  156) = (  -0.2777778   0.4169752   0.0000000), wk =   0.0000000
        k(  157) = (   0.3333333  -0.2566001   0.0000000), wk =   0.0123457
        k(  158) = (   0.4444444   0.3207501   0.0000000), wk =   0.0000000
        k(  159) = (  -0.0555556  -0.4169752   0.0000000), wk =   0.0123457
        k(  160) = (   0.0555556   0.1603751   0.0000000), wk =   0.0000000
        k(  161) = (   0.3888889   0.1603751   0.0000000), wk =   0.0123457
        k(  162) = (   0.5000000   0.7377253   0.0000000), wk =   0.0000000
        k(  163) = (  -0.3333333   0.2566001   0.0000000), wk =   0.0123457
        k(  164) = (  -0.2222222   0.8339504   0.0000000), wk =   0.0000000
        k(  165) = (  -0.4444444  -0.1924501   0.0000000), wk =   0.0123457
        k(  166) = (  -0.3333333   0.3849002   0.0000000), wk =   0.0000000
        k(  167) = (   0.3888889  -0.2886751   0.0000000), wk =   0.0123457
        k(  168) = (   0.5000000   0.2886751   0.0000000), wk =   0.0000000
        k(  169) = (  -0.0555556  -0.4811252   0.0000000), wk =   0.0123457
        k(  170) = (   0.0555556   0.0962250   0.0000000), wk =   0.0000000
        k(  171) = (   0.4444444   0.1924501   0.0000000), wk =   0.0123457
        k(  172) = (   0.5555556   0.7698004   0.0000000), wk =   0.0000000
        k(  173) = (  -0.3888889   0.2886751   0.0000000), wk =   0.0123457
        k(  174) = (  -0.2777778   0.8660254   0.0000000), wk =   0.0000000
        k(  175) = (  -0.5000000  -0.2245251   0.0000000), wk =   0.0123457
        k(  176) = (  -0.3888889   0.3528252   0.0000000), wk =   0.0000000
        k(  177) = (   0.4444444  -0.3207501   0.0000000), wk =   0.0123457
        k(  178) = (   0.5555556   0.2566001   0.0000000), wk =   0.0000000
        k(  179) = (  -0.0555556  -0.5452753   0.0000000), wk =   0.0123457
        k(  180) = (   0.0555556   0.0320750   0.0000000), wk =   0.0000000
        k(  181) = (   0.5000000   0.2245251   0.0000000), wk =   0.0123457
        k(  182) = (   0.6111111   0.8018754   0.0000000), wk =   0.0000000
        k(  183) = (  -0.4444444   0.3207501   0.0000000), wk =   0.0123457
        k(  184) = (  -0.3333333   0.8981004   0.0000000), wk =   0.0000000
        k(  185) = (  -0.2222222  -0.0000000   0.0000000), wk =   0.0061728
        k(  186) = (  -0.1111111   0.5773503   0.0000000), wk =   0.0000000
        k(  187) = (  -0.1111111  -0.1924501   0.0000000), wk =   0.0123457
        k(  188) = (   0.0000000   0.3849002   0.0000000), wk =   0.0000000
        k(  189) = (   0.2222222   0.0000000   0.0000000), wk =   0.0061728
        k(  190) = (   0.3333333   0.5773503   0.0000000), wk =   0.0000000
        k(  191) = (  -0.2777778  -0.0320750   0.0000000), wk =   0.0123457
        k(  192) = (  -0.1666667   0.5452753   0.0000000), wk =   0.0000000
        k(  193) = (   0.1666667  -0.2245251   0.0000000), wk =   0.0123457
        k(  194) = (   0.2777778   0.3528252   0.0000000), wk =   0.0000000
        k(  195) = (  -0.1111111  -0.2566001   0.0000000), wk =   0.0123457
        k(  196) = (   0.0000000   0.3207501   0.0000000), wk =   0.0000000
        k(  197) = (   0.2777778   0.0320750   0.0000000), wk =   0.0123457
        k(  198) = (   0.3888889   0.6094253   0.0000000), wk =   0.0000000
        k(  199) = (  -0.1666667   0.2245251   0.0000000), wk =   0.0123457
        k(  200) = (  -0.0555556   0.8018754   0.0000000), wk =   0.0000000
        k(  201) = (  -0.3333333  -0.0641500   0.0000000), wk =   0.0123457
        k(  202) = (  -0.2222222   0.5132002   0.0000000), wk =   0.0000000
        k(  203) = (   0.2222222  -0.2566001   0.0000000), wk =   0.0123457
        k(  204) = (   0.3333333   0.3207501   0.0000000), wk =   0.0000000
        k(  205) = (  -0.1111111  -0.3207501   0.0000000), wk =   0.0123457
        k(  206) = (   0.0000000   0.2566001   0.0000000), wk =   0.0000000
        k(  207) = (   0.3333333   0.0641500   0.0000000), wk =   0.0123457
        k(  208) = (   0.4444444   0.6415003   0.0000000), wk =   0.0000000
        k(  209) = (  -0.2222222   0.2566001   0.0000000), wk =   0.0123457
        k(  210) = (  -0.1111111   0.8339504   0.0000000), wk =   0.0000000
        k(  211) = (  -0.3888889  -0.0962250   0.0000000), wk =   0.0123457
        k(  212) = (  -0.2777778   0.4811252   0.0000000), wk =   0.0000000
        k(  213) = (   0.2777778  -0.2886751   0.0000000), wk =   0.0123457
        k(  214) = (   0.3888889   0.2886751   0.0000000), wk =   0.0000000
        k(  215) = (  -0.1111111  -0.3849002   0.0000000), wk =   0.0123457
        k(  216) = (   0.0000000   0.1924501   0.0000000), wk =   0.0000000
        k(  217) = (   0.3888889   0.0962250   0.0000000), wk =   0.0123457
        k(  218) = (   0.5000000   0.6735753   0.0000000), wk =   0.0000000
        k(  219) = (  -0.2777778   0.2886751   0.0000000), wk =   0.0123457
        k(  220) = (  -0.1666667   0.8660254   0.0000000), wk =   0.0000000
        k(  221) = (  -0.4444444  -0.1283001   0.0000000), wk =   0.0123457
        k(  222) = (  -0.3333333   0.4490502   0.0000000), wk =   0.0000000
        k(  223) = (   0.3333333  -0.3207501   0.0000000), wk =   0.0123457
        k(  224) = (   0.4444444   0.2566001   0.0000000), wk =   0.0000000
        k(  225) = (  -0.1111111  -0.4490502   0.0000000), wk =   0.0123457
        k(  226) = (   0.0000000   0.1283001   0.0000000), wk =   0.0000000
        k(  227) = (   0.4444444   0.1283001   0.0000000), wk =   0.0123457
        k(  228) = (   0.5555556   0.7056503   0.0000000), wk =   0.0000000
        k(  229) = (  -0.3333333   0.3207501   0.0000000), wk =   0.0123457
        k(  230) = (  -0.2222222   0.8981004   0.0000000), wk =   0.0000000
        k(  231) = (  -0.5000000  -0.1603751   0.0000000), wk =   0.0123457
        k(  232) = (  -0.3888889   0.4169752   0.0000000), wk =   0.0000000
        k(  233) = (   0.3888889  -0.3528252   0.0000000), wk =   0.0123457
        k(  234) = (   0.5000000   0.2245251   0.0000000), wk =   0.0000000
        k(  235) = (  -0.1111111  -0.5132002   0.0000000), wk =   0.0123457
        k(  236) = (   0.0000000   0.0641500   0.0000000), wk =   0.0000000
        k(  237) = (   0.5000000   0.1603751   0.0000000), wk =   0.0123457
        k(  238) = (   0.6111111   0.7377253   0.0000000), wk =   0.0000000
        k(  239) = (  -0.3888889   0.3528252   0.0000000), wk =   0.0123457
        k(  240) = (  -0.2777778   0.9301754   0.0000000), wk =   0.0000000
        k(  241) = (  -0.5555556  -0.1924501   0.0000000), wk =   0.0123457
        k(  242) = (  -0.4444444   0.3849002   0.0000000), wk =   0.0000000
        k(  243) = (  -0.1111111  -0.5773503   0.0000000), wk =   0.0061728
        k(  244) = (   0.0000000   0.0000000   0.0000000), wk =   0.0000000
        k(  245) = (   0.5555556   0.1924501   0.0000000), wk =   0.0123457
        k(  246) = (   0.6666667   0.7698004   0.0000000), wk =   0.0000000
        k(  247) = (  -0.3333333  -0.0000000   0.0000000), wk =   0.0061728
        k(  248) = (  -0.2222222   0.5773503   0.0000000), wk =   0.0000000
        k(  249) = (  -0.1666667  -0.2886751   0.0000000), wk =   0.0123457
        k(  250) = (  -0.0555556   0.2886751   0.0000000), wk =   0.0000000
        k(  251) = (   0.3333333   0.0000000   0.0000000), wk =   0.0061728
        k(  252) = (   0.4444444   0.5773503   0.0000000), wk =   0.0000000
        k(  253) = (  -0.3888889  -0.0320750   0.0000000), wk =   0.0123457
        k(  254) = (  -0.2777778   0.5452753   0.0000000), wk =   0.0000000
        k(  255) = (   0.2222222  -0.3207501   0.0000000), wk =   0.0123457
        k(  256) = (   0.3333333   0.2566001   0.0000000), wk =   0.0000000
        k(  257) = (  -0.1666667  -0.3528252   0.0000000), wk =   0.0123457
        k(  258) = (  -0.0555556   0.2245251   0.0000000), wk =   0.0000000
        k(  259) = (   0.3888889   0.0320750   0.0000000), wk =   0.0123457
        k(  260) = (   0.5000000   0.6094253   0.0000000), wk =   0.0000000
        k(  261) = (  -0.2222222   0.3207501   0.0000000), wk =   0.0123457
        k(  262) = (  -0.1111111   0.8981004   0.0000000), wk =   0.0000000
        k(  263) = (  -0.4444444  -0.0641500   0.0000000), wk =   0.0123457
        k(  264) = (  -0.3333333   0.5132002   0.0000000), wk =   0.0000000
        k(  265) = (   0.2777778  -0.3528252   0.0000000), wk =   0.0123457
        k(  266) = (   0.3888889   0.2245251   0.0000000), wk =   0.0000000
        k(  267) = (  -0.1666667  -0.4169752   0.0000000), wk =   0.0123457
        k(  268) = (  -0.0555556   0.1603751   0.0000000), wk =   0.0000000
        k(  269) = (   0.4444444   0.0641500   0.0000000), wk =   0.0123457
        k(  270) = (   0.5555556   0.6415003   0.0000000), wk =   0.0000000
        k(  271) = (  -0.2777778   0.3528252   0.0000000), wk =   0.0123457
        k(  272) = (  -0.1666667   0.9301754   0.0000000), wk =   0.0000000
        k(  273) = (  -0.5000000  -0.0962250   0.0000000), wk =   0.0123457
        k(  274) = (  -0.3888889   0.4811252   0.0000000), wk =   0.0000000
        k(  275) = (   0.3333333  -0.3849002   0.0000000), wk =   0.0123457
        k(  276) = (   0.4444444   0.1924501   0.0000000), wk =   0.0000000
        k(  277) = (  -0.1666667  -0.4811252   0.0000000), wk =   0.0123457
        k(  278) = (  -0.0555556   0.0962250   0.0000000), wk =   0.0000000
        k(  279) = (   0.5000000   0.0962250   0.0000000), wk =   0.0123457
        k(  280) = (   0.6111111   0.6735753   0.0000000), wk =   0.0000000
        k(  281) = (  -0.3333333   0.3849002   0.0000000), wk =   0.0123457
        k(  282) = (  -0.2222222   0.9622504   0.0000000), wk =   0.0000000
        k(  283) = (  -0.5555556  -0.1283001   0.0000000), wk =   0.0123457
        k(  284) = (  -0.4444444   0.4490502   0.0000000), wk =   0.0000000
        k(  285) = (   0.3888889  -0.4169752   0.0000000), wk =   0.0123457
        k(  286) = (   0.5000000   0.1603751   0.0000000), wk =   0.0000000
        k(  287) = (  -0.1666667  -0.5452753   0.0000000), wk =   0.0123457
        k(  288) = (  -0.0555556   0.0320750   0.0000000), wk =   0.0000000
        k(  289) = (   0.5555556   0.1283001   0.0000000), wk =   0.0123457
        k(  290) = (   0.6666667   0.7056503   0.0000000), wk =   0.0000000
        k(  291) = (  -0.3888889   0.4169752   0.0000000), wk =   0.0123457
        k(  292) = (  -0.2777778   0.9943255   0.0000000), wk =   0.0000000
        k(  293) = (  -0.4444444  -0.0000000   0.0000000), wk =   0.0061728
        k(  294) = (  -0.3333333   0.5773503   0.0000000), wk =   0.0000000
        k(  295) = (  -0.2222222  -0.3849002   0.0000000), wk =   0.0123457
        k(  296) = (  -0.1111111   0.1924501   0.0000000), wk =   0.0000000
        k(  297) = (   0.4444444   0.0000000   0.0000000), wk =   0.0061728
        k(  298) = (   0.5555556   0.5773503   0.0000000), wk =   0.0000000
        k(  299) = (  -0.5000000  -0.0320750   0.0000000), wk =   0.0123457
        k(  300) = (  -0.3888889   0.5452753   0.0000000), wk =   0.0000000
        k(  301) = (   0.2777778  -0.4169752   0.0000000), wk =   0.0123457
        k(  302) = (   0.3888889   0.1603751   0.0000000), wk =   0.0000000
        k(  303) = (  -0.2222222  -0.4490502   0.0000000), wk =   0.0123457
        k(  304) = (  -0.1111111   0.1283001   0.0000000), wk =   0.0000000
        k(  305) = (   0.5000000   0.0320750   0.0000000), wk =   0.0123457
        k(  306) = (   0.6111111   0.6094253   0.0000000), wk =   0.0000000
        k(  307) = (  -0.2777778   0.4169752   0.0000000), wk =   0.0123457
        k(  308) = (  -0.1666667   0.9943255   0.0000000), wk =   0.0000000
        k(  309) = (  -0.5555556  -0.0641500   0.0000000), wk =   0.0123457
        k(  310) = (  -0.4444444   0.5132002   0.0000000), wk =   0.0000000
        k(  311) = (   0.3333333  -0.4490502   0.0000000), wk =   0.0123457
        k(  312) = (   0.4444444   0.1283001   0.0000000), wk =   0.0000000
        k(  313) = (  -0.2222222  -0.5132002   0.0000000), wk =   0.0123457
        k(  314) = (  -0.1111111   0.0641500   0.0000000), wk =   0.0000000
        k(  315) = (   0.5555556   0.0641500   0.0000000), wk =   0.0123457
        k(  316) = (   0.6666667   0.6415003   0.0000000), wk =   0.0000000
        k(  317) = (  -0.3333333   0.4490502   0.0000000), wk =   0.0123457
        k(  318) = (  -0.2222222   1.0264005   0.0000000), wk =   0.0000000
        k(  319) = (  -0.6111111  -0.0962250   0.0000000), wk =   0.0123457
        k(  320) = (  -0.5000000   0.4811252   0.0000000), wk =   0.0000000
        k(  321) = (  -0.2222222  -0.5773503   0.0000000), wk =   0.0061728
        k(  322) = (  -0.1111111   0.0000000   0.0000000), wk =   0.0000000
        k(  323) = (   0.6111111   0.0962250   0.0000000), wk =   0.0123457
        k(  324) = (   0.7222222   0.6735753   0.0000000), wk =   0.0000000
        k(  325) = (  -0.5555556  -0.0000000   0.0000000), wk =   0.0061728
        k(  326) = (  -0.4444444   0.5773503   0.0000000), wk =   0.0000000
        k(  327) = (  -0.2777778  -0.4811252   0.0000000), wk =   0.0123457
        k(  328) = (  -0.1666667   0.0962250   0.0000000), wk =   0.0000000
        k(  329) = (   0.5555556   0.0000000   0.0000000), wk =   0.0061728
        k(  330) = (   0.6666667   0.5773503   0.0000000), wk =   0.0000000
        k(  331) = (  -0.6111111  -0.0320750   0.0000000), wk =   0.0123457
        k(  332) = (  -0.5000000   0.5452753   0.0000000), wk =   0.0000000
        k(  333) = (   0.3333333  -0.5132002   0.0000000), wk =   0.0123457
        k(  334) = (   0.4444444   0.0641500   0.0000000), wk =   0.0000000
        k(  335) = (  -0.2777778  -0.5452753   0.0000000), wk =   0.0123457
        k(  336) = (  -0.1666667   0.0320750   0.0000000), wk =   0.0000000
        k(  337) = (   0.6111111   0.0320750   0.0000000), wk =   0.0123457
        k(  338) = (   0.7222222   0.6094253   0.0000000), wk =   0.0000000
        k(  339) = (  -0.3333333   0.5132002   0.0000000), wk =   0.0123457
        k(  340) = (  -0.2222222   1.0905505   0.0000000), wk =   0.0000000
        k(  341) = (  -0.3333333  -0.5773503   0.0000000), wk =   0.0061728
        k(  342) = (  -0.2222222   0.0000000   0.0000000), wk =   0.0000000

                       cryst. coord.
        k(    1) = (   0.0000000   0.0000000   0.0000000), wk =   0.0061728
        k(    2) = (   0.1111111   0.4444444   0.0000000), wk =   0.0000000
        k(    3) = (   0.0000000   0.0555556   0.0000000), wk =   0.0123457
        k(    4) = (   0.1111111   0.5000000   0.0000000), wk =   0.0000000
        k(    5) = (   0.0000000   0.1111111   0.0000000), wk =   0.0123457
        k(    6) = (   0.1111111   0.5555556   0.0000000), wk =   0.0000000
        k(    7) = (   0.0000000   0.1666667   0.0000000), wk =   0.0123457
        k(    8) = (   0.1111111   0.6111111   0.0000000), wk =   0.0000000
        k(    9) = (   0.0000000   0.2222222   0.0000000), wk =   0.0123457
        k(   10) = (   0.1111111   0.6666667   0.0000000), wk =   0.0000000
        k(   11) = (   0.0000000   0.2777778   0.0000000), wk =   0.0123457
        k(   12) = (   0.1111111   0.7222222   0.0000000), wk =   0.0000000
        k(   13) = (   0.0000000   0.3333333   0.0000000), wk =   0.0123457
        k(   14) = (   0.1111111   0.7777778   0.0000000), wk =   0.0000000
        k(   15) = (   0.0000000   0.3888889   0.0000000), wk =   0.0123457
        k(   16) = (   0.1111111   0.8333333   0.0000000), wk =   0.0000000
        k(   17) = (   0.0000000   0.4444444   0.0000000), wk =   0.0123457
        k(   18) = (   0.1111111   0.8888889   0.0000000), wk =   0.0000000
        k(   19) = (   0.0000000  -0.5000000   0.0000000), wk =   0.0061728
        k(   20) = (   0.1111111  -0.0555556   0.0000000), wk =   0.0000000
        k(   21) = (   0.0555556   0.0555556   0.0000000), wk =   0.0123457
        k(   22) = (   0.1666667   0.5000000   0.0000000), wk =   0.0000000
        k(   23) = (   0.0555556   0.1111111   0.0000000), wk =   0.0123457
        k(   24) = (   0.1666667   0.5555556   0.0000000), wk =   0.0000000
        k(   25) = (   0.0555556   0.1666667   0.0000000), wk =   0.0123457
        k(   26) = (   0.1666667   0.6111111   0.0000000), wk =   0.0000000
        k(   27) = (   0.0555556   0.2222222   0.0000000), wk =   0.0123457
        k(   28) = (   0.1666667   0.6666667   0.0000000), wk =   0.0000000
        k(   29) = (   0.0555556   0.2777778   0.0000000), wk =   0.0123457
        k(   30) = (   0.1666667   0.7222222   0.0000000), wk =   0.0000000
        k(   31) = (   0.0555556   0.3333333   0.0000000), wk =   0.0123457
        k(   32) = (   0.1666667   0.7777778   0.0000000), wk =   0.0000000
        k(   33) = (   0.0555556   0.3888889   0.0000000), wk =   0.0123457
        k(   34) = (   0.1666667   0.8333333   0.0000000), wk =   0.0000000
        k(   35) = (   0.0555556   0.4444444   0.0000000), wk =   0.0123457
        k(   36) = (   0.1666667   0.8888889   0.0000000), wk =   0.0000000
        k(   37) = (   0.1111111   0.1111111   0.0000000), wk =   0.0123457
        k(   38) = (   0.2222222   0.5555556   0.0000000), wk =   0.0000000
        k(   39) = (   0.1111111   0.1666667   0.0000000), wk =   0.0123457
        k(   40) = (   0.2222222   0.6111111   0.0000000), wk =   0.0000000
        k(   41) = (   0.1111111   0.2222222   0.0000000), wk =   0.0123457
        k(   42) = (   0.2222222   0.6666667   0.0000000), wk =   0.0000000
        k(   43) = (   0.1111111   0.2777778   0.0000000), wk =   0.0123457
        k(   44) = (   0.2222222   0.7222222   0.0000000), wk =   0.0000000
        k(   45) = (   0.1111111   0.3333333   0.0000000), wk =   0.0123457
        k(   46) = (   0.2222222   0.7777778   0.0000000), wk =   0.0000000
        k(   47) = (   0.1111111   0.3888889   0.0000000), wk =   0.0123457
        k(   48) = (   0.2222222   0.8333333   0.0000000), wk =   0.0000000
        k(   49) = (   0.1111111   0.4444444   0.0000000), wk =   0.0061728
        k(   50) = (   0.2222222   0.8888889   0.0000000), wk =   0.0000000
        k(   51) = (   0.1666667   0.1666667   0.0000000), wk =   0.0123457
        k(   52) = (   0.2777778   0.6111111   0.0000000), wk =   0.0000000
        k(   53) = (   0.1666667   0.2222222   0.0000000), wk =   0.0123457
        k(   54) = (   0.2777778   0.6666667   0.0000000), wk =   0.0000000
        k(   55) = (   0.1666667   0.2777778   0.0000000), wk =   0.0123457
        k(   56) = (   0.2777778   0.7222222   0.0000000), wk =   0.0000000
        k(   57) = (   0.1666667   0.3333333   0.0000000), wk =   0.0123457
        k(   58) = (   0.2777778   0.7777778   0.0000000), wk =   0.0000000
        k(   59) = (   0.1666667   0.3888889   0.0000000), wk =   0.0123457
        k(   60) = (   0.2777778   0.8333333   0.0000000), wk =   0.0000000
        k(   61) = (   0.2222222   0.2222222   0.0000000), wk =   0.0123457
        k(   62) = (   0.3333333   0.6666667   0.0000000), wk =   0.0000000
        k(   63) = (   0.2222222   0.2777778   0.0000000), wk =   0.0123457
        k(   64) = (   0.3333333   0.7222222   0.0000000), wk =   0.0000000
        k(   65) = (   0.2222222   0.3333333   0.0000000), wk =   0.0123457
        k(   66) = (   0.3333333   0.7777778   0.0000000), wk =   0.0000000
        k(   67) = (   0.2222222   0.3888889   0.0000000), wk =   0.0061728
        k(   68) = (   0.3333333   0.8333333   0.0000000), wk =   0.0000000
        k(   69) = (   0.2777778   0.2777778   0.0000000), wk =   0.0123457
        k(   70) = (   0.3888889   0.7222222   0.0000000), wk =   0.0000000
        k(   71) = (   0.2777778   0.3333333   0.0000000), wk =   0.0123457
        k(   72) = (   0.3888889   0.7777778   0.0000000), wk =   0.0000000
        k(   73) = (   0.3333333   0.3333333   0.0000000), wk =   0.0061728
        k(   74) = (   0.4444444   0.7777778   0.0000000), wk =   0.0000000
        k(   75) = (  -0.0555556   0.0000000   0.0000000), wk =   0.0123457
        k(   76) = (   0.0555556   0.4444444   0.0000000), wk =   0.0000000
        k(   77) = (   0.0555556  -0.0555556   0.0000000), wk =   0.0123457
        k(   78) = (   0.1666667   0.3888889   0.0000000), wk =   0.0000000
        k(   79) = (  -0.1111111   0.0000000   0.0000000), wk =   0.0123457
        k(   80) = (   0.0000000   0.4444444   0.0000000), wk =   0.0000000
        k(   81) = (   0.1111111  -0.1111111   0.0000000), wk =   0.0123457
        k(   82) = (   0.2222222   0.3333333   0.0000000), wk =   0.0000000
        k(   83) = (  -0.1666667   0.0000000   0.0000000), wk =   0.0123457
        k(   84) = (  -0.0555556   0.4444444   0.0000000), wk =   0.0000000
        k(   85) = (   0.1666667  -0.1666667   0.0000000), wk =   0.0123457
        k(   86) = (   0.2777778   0.2777778   0.0000000), wk =   0.0000000
        k(   87) = (  -0.2222222   0.0000000   0.0000000), wk =   0.0123457
        k(   88) = (  -0.1111111   0.4444444   0.0000000), wk =   0.0000000
        k(   89) = (   0.2222222  -0.2222222   0.0000000), wk =   0.0123457
        k(   90) = (   0.3333333   0.2222222   0.0000000), wk =   0.0000000
        k(   91) = (  -0.2777778   0.0000000   0.0000000), wk =   0.0123457
        k(   92) = (  -0.1666667   0.4444444   0.0000000), wk =   0.0000000
        k(   93) = (   0.2777778  -0.2777778   0.0000000), wk =   0.0123457
        k(   94) = (   0.3888889   0.1666667   0.0000000), wk =   0.0000000
        k(   95) = (  -0.3333333   0.0000000   0.0000000), wk =   0.0123457
        k(   96) = (  -0.2222222   0.4444444   0.0000000), wk =   0.0000000
        k(   97) = (   0.3333333  -0.3333333   0.0000000), wk =   0.0123457
        k(   98) = (   0.4444444   0.1111111   0.0000000), wk =   0.0000000
        k(   99) = (  -0.3888889  -0.0000000   0.0000000), wk =   0.0123457
        k(  100) = (  -0.2777778   0.4444444   0.0000000), wk =   0.0000000
        k(  101) = (   0.3888889  -0.3888889   0.0000000), wk =   0.0123457
        k(  102) = (   0.5000000   0.0555556   0.0000000), wk =   0.0000000
        k(  103) = (  -0.4444444   0.0000000   0.0000000), wk =   0.0123457
        k(  104) = (  -0.3333333   0.4444444   0.0000000), wk =   0.0000000
        k(  105) = (   0.4444444  -0.4444444   0.0000000), wk =   0.0123457
        k(  106) = (   0.5555556  -0.0000000   0.0000000), wk =   0.0000000
        k(  107) = (   0.5000000   0.0000000   0.0000000), wk =   0.0123457
        k(  108) = (   0.6111111   0.4444444   0.0000000), wk =   0.0000000
        k(  109) = (  -0.1111111   0.0555556   0.0000000), wk =   0.0061728
        k(  110) = (   0.0000000   0.5000000   0.0000000), wk =   0.0000000
        k(  111) = (  -0.0555556  -0.0555556   0.0000000), wk =   0.0123457
        k(  112) = (   0.0555556   0.3888889   0.0000000), wk =   0.0000000
        k(  113) = (   0.1111111  -0.0555556   0.0000000), wk =   0.0061728
        k(  114) = (   0.2222222   0.3888889   0.0000000), wk =   0.0000000
        k(  115) = (  -0.1666667   0.0555556   0.0000000), wk =   0.0123457
        k(  116) = (  -0.0555556   0.5000000   0.0000000), wk =   0.0000000
        k(  117) = (   0.1111111  -0.1666667   0.0000000), wk =   0.0123457
        k(  118) = (   0.2222222   0.2777778   0.0000000), wk =   0.0000000
        k(  119) = (  -0.0555556  -0.1111111   0.0000000), wk =   0.0123457
        k(  120) = (   0.0555556   0.3333333   0.0000000), wk =   0.0000000
        k(  121) = (   0.1666667  -0.0555556   0.0000000), wk =   0.0123457
        k(  122) = (   0.2777778   0.3888889   0.0000000), wk =   0.0000000
        k(  123) = (  -0.1111111   0.1666667   0.0000000), wk =   0.0123457
        k(  124) = (   0.0000000   0.6111111   0.0000000), wk =   0.0000000
        k(  125) = (  -0.2222222   0.0555556   0.0000000), wk =   0.0123457
        k(  126) = (  -0.1111111   0.5000000   0.0000000), wk =   0.0000000
        k(  127) = (   0.1666667  -0.2222222   0.0000000), wk =   0.0123457
        k(  128) = (   0.2777778   0.2222222   0.0000000), wk =   0.0000000
        k(  129) = (  -0.0555556  -0.1666667   0.0000000), wk =   0.0123457
        k(  130) = (   0.0555556   0.2777778   0.0000000), wk =   0.0000000
        k(  131) = (   0.2222222  -0.0555556   0.0000000), wk =   0.0123457
        k(  132) = (   0.3333333   0.3888889   0.0000000), wk =   0.0000000
        k(  133) = (  -0.1666667   0.2222222   0.0000000), wk =   0.0123457
        k(  134) = (  -0.0555556   0.6666667   0.0000000), wk =   0.0000000
        k(  135) = (  -0.2777778   0.0555556   0.0000000), wk =   0.0123457
        k(  136) = (  -0.1666667   0.5000000   0.0000000), wk =   0.0000000
        k(  137) = (   0.2222222  -0.2777778   0.0000000), wk =   0.0123457
        k(  138) = (   0.3333333   0.1666667   0.0000000), wk =   0.0000000
        k(  139) = (  -0.0555556  -0.2222222   0.0000000), wk =   0.0123457
        k(  140) = (   0.0555556   0.2222222   0.0000000), wk =   0.0000000
        k(  141) = (   0.2777778  -0.0555556   0.0000000), wk =   0.0123457
        k(  142) = (   0.3888889   0.3888889   0.0000000), wk =   0.0000000
        k(  143) = (  -0.2222222   0.2777778   0.0000000), wk =   0.0123457
        k(  144) = (  -0.1111111   0.7222222   0.0000000), wk =   0.0000000
        k(  145) = (  -0.3333333   0.0555556   0.0000000), wk =   0.0123457
        k(  146) = (  -0.2222222   0.5000000   0.0000000), wk =   0.0000000
        k(  147) = (   0.2777778  -0.3333333   0.0000000), wk =   0.0123457
        k(  148) = (   0.3888889   0.1111111   0.0000000), wk =   0.0000000
        k(  149) = (  -0.0555556  -0.2777778   0.0000000), wk =   0.0123457
        k(  150) = (   0.0555556   0.1666667   0.0000000), wk =   0.0000000
        k(  151) = (   0.3333333  -0.0555556   0.0000000), wk =   0.0123457
        k(  152) = (   0.4444444   0.3888889   0.0000000), wk =   0.0000000
        k(  153) = (  -0.2777778   0.3333333   0.0000000), wk =   0.0123457
        k(  154) = (  -0.1666667   0.7777778   0.0000000), wk =   0.0000000
        k(  155) = (  -0.3888889   0.0555556   0.0000000), wk =   0.0123457
        k(  156) = (  -0.2777778   0.5000000   0.0000000), wk =   0.0000000
        k(  157) = (   0.3333333  -0.3888889   0.0000000), wk =   0.0123457
        k(  158) = (   0.4444444   0.0555556   0.0000000), wk =   0.0000000
        k(  159) = (  -0.0555556  -0.3333333   0.0000000), wk =   0.0123457
        k(  160) = (   0.0555556   0.1111111   0.0000000), wk =   0.0000000
        k(  161) = (   0.3888889  -0.0555556   0.0000000), wk =   0.0123457
        k(  162) = (   0.5000000   0.3888889   0.0000000), wk =   0.0000000
        k(  163) = (  -0.3333333   0.3888889   0.0000000), wk =   0.0123457
        k(  164) = (  -0.2222222   0.8333333   0.0000000), wk =   0.0000000
        k(  165) = (  -0.4444444   0.0555556   0.0000000), wk =   0.0123457
        k(  166) = (  -0.3333333   0.5000000   0.0000000), wk =   0.0000000
        k(  167) = (   0.3888889  -0.4444444   0.0000000), wk =   0.0123457
        k(  168) = (   0.5000000   0.0000000   0.0000000), wk =   0.0000000
        k(  169) = (  -0.0555556  -0.3888889   0.0000000), wk =   0.0123457
        k(  170) = (   0.0555556   0.0555556   0.0000000), wk =   0.0000000
        k(  171) = (   0.4444444  -0.0555556   0.0000000), wk =   0.0123457
        k(  172) = (   0.5555556   0.3888889   0.0000000), wk =   0.0000000
        k(  173) = (  -0.3888889   0.4444444   0.0000000), wk =   0.0123457
        k(  174) = (  -0.2777778   0.8888889   0.0000000), wk =   0.0000000
        k(  175) = (  -0.5000000   0.0555556   0.0000000), wk =   0.0123457
        k(  176) = (  -0.3888889   0.5000000   0.0000000), wk =   0.0000000
        k(  177) = (   0.4444444  -0.5000000   0.0000000), wk =   0.0123457
        k(  178) = (   0.5555556  -0.0555556   0.0000000), wk =   0.0000000
        k(  179) = (  -0.0555556  -0.4444444   0.0000000), wk =   0.0123457
        k(  180) = (   0.0555556  -0.0000000   0.0000000), wk =   0.0000000
        k(  181) = (   0.5000000  -0.0555556   0.0000000), wk =   0.0123457
        k(  182) = (   0.6111111   0.3888889   0.0000000), wk =   0.0000000
        k(  183) = (  -0.4444444   0.5000000   0.0000000), wk =   0.0123457
        k(  184) = (  -0.3333333   0.9444444   0.0000000), wk =   0.0000000
        k(  185) = (  -0.2222222   0.1111111   0.0000000), wk =   0.0061728
        k(  186) = (  -0.1111111   0.5555556   0.0000000), wk =   0.0000000
        k(  187) = (  -0.1111111  -0.1111111   0.0000000), wk =   0.0123457
        k(  188) = (   0.0000000   0.3333333   0.0000000), wk =   0.0000000
        k(  189) = (   0.2222222  -0.1111111   0.0000000), wk =   0.0061728
        k(  190) = (   0.3333333   0.3333333   0.0000000), wk =   0.0000000
        k(  191) = (  -0.2777778   0.1111111   0.0000000), wk =   0.0123457
        k(  192) = (  -0.1666667   0.5555556   0.0000000), wk =   0.0000000
        k(  193) = (   0.1666667  -0.2777778   0.0000000), wk =   0.0123457
        k(  194) = (   0.2777778   0.1666667   0.0000000), wk =   0.0000000
        k(  195) = (  -0.1111111  -0.1666667   0.0000000), wk =   0.0123457
        k(  196) = (   0.0000000   0.2777778   0.0000000), wk =   0.0000000
        k(  197) = (   0.2777778  -0.1111111   0.0000000), wk =   0.0123457
        k(  198) = (   0.3888889   0.3333333   0.0000000), wk =   0.0000000
        k(  199) = (  -0.1666667   0.2777778   0.0000000), wk =   0.0123457
        k(  200) = (  -0.0555556   0.7222222   0.0000000), wk =   0.0000000
        k(  201) = (  -0.3333333   0.1111111   0.0000000), wk =   0.0123457
        k(  202) = (  -0.2222222   0.5555556   0.0000000), wk =   0.0000000
        k(  203) = (   0.2222222  -0.3333333   0.0000000), wk =   0.0123457
        k(  204) = (   0.3333333   0.1111111   0.0000000), wk =   0.0000000
        k(  205) = (  -0.1111111  -0.2222222   0.0000000), wk =   0.0123457
        k(  206) = (   0.0000000   0.2222222   0.0000000), wk =   0.0000000
        k(  207) = (   0.3333333  -0.1111111   0.0000000), wk =   0.0123457
        k(  208) = (   0.4444444   0.3333333   0.0000000), wk =   0.0000000
        k(  209) = (  -0.2222222   0.3333333   0.0000000), wk =   0.0123457
        k(  210) = (  -0.1111111   0.7777778   0.0000000), wk =   0.0000000
        k(  211) = (  -0.3888889   0.1111111   0.0000000), wk =   0.0123457
        k(  212) = (  -0.2777778   0.5555556   0.0000000), wk =   0.0000000
        k(  213) = (   0.2777778  -0.3888889   0.0000000), wk =   0.0123457
        k(  214) = (   0.3888889   0.0555556   0.0000000), wk =   0.0000000
        k(  215) = (  -0.1111111  -0.2777778   0.0000000), wk =   0.0123457
        k(  216) = (   0.0000000   0.1666667   0.0000000), wk =   0.0000000
        k(  217) = (   0.3888889  -0.1111111   0.0000000), wk =   0.0123457
        k(  218) = (   0.5000000   0.3333333   0.0000000), wk =   0.0000000
        k(  219) = (  -0.2777778   0.3888889   0.0000000), wk =   0.0123457
        k(  220) = (  -0.1666667   0.8333333   0.0000000), wk =   0.0000000
        k(  221) = (  -0.4444444   0.1111111   0.0000000), wk =   0.0123457
        k(  222) = (  -0.3333333   0.5555556   0.0000000), wk =   0.0000000
        k(  223) = (   0.3333333  -0.4444444   0.0000000), wk =   0.0123457
        k(  224) = (   0.4444444   0.0000000   0.0000000), wk =   0.0000000
        k(  225) = (  -0.1111111  -0.3333333   0.0000000), wk =   0.0123457
        k(  226) = (   0.0000000   0.1111111   0.0000000), wk =   0.0000000
        k(  227) = (   0.4444444  -0.1111111   0.0000000), wk =   0.0123457
        k(  228) = (   0.5555556   0.3333333   0.0000000), wk =   0.0000000
        k(  229) = (  -0.3333333   0.4444444   0.0000000), wk =   0.0123457
        k(  230) = (  -0.2222222   0.8888889   0.0000000), wk =   0.0000000
        k(  231) = (  -0.5000000   0.1111111   0.0000000), wk =   0.0123457
        k(  232) = (  -0.3888889   0.5555556   0.0000000), wk =   0.0000000
        k(  233) = (   0.3888889  -0.5000000   0.0000000), wk =   0.0123457
        k(  234) = (   0.5000000  -0.0555556   0.0000000), wk =   0.0000000
        k(  235) = (  -0.1111111  -0.3888889   0.0000000), wk =   0.0123457
        k(  236) = (   0.0000000   0.0555556   0.0000000), wk =   0.0000000
        k(  237) = (   0.5000000  -0.1111111   0.0000000), wk =   0.0123457
        k(  238) = (   0.6111111   0.3333333   0.0000000), wk =   0.0000000
        k(  239) = (  -0.3888889   0.5000000   0.0000000), wk =   0.0123457
        k(  240) = (  -0.2777778   0.9444444   0.0000000), wk =   0.0000000
        k(  241) = (  -0.5555556   0.1111111   0.0000000), wk =   0.0123457
        k(  242) = (  -0.4444444   0.5555556   0.0000000), wk =   0.0000000
        k(  243) = (  -0.1111111  -0.4444444   0.0000000), wk =   0.0061728
        k(  244) = (   0.0000000  -0.0000000   0.0000000), wk =   0.0000000
        k(  245) = (   0.5555556  -0.1111111   0.0000000), wk =   0.0123457
        k(  246) = (   0.6666667   0.3333333   0.0000000), wk =   0.0000000
        k(  247) = (  -0.3333333   0.1666667   0.0000000), wk =   0.0061728
        k(  248) = (  -0.2222222   0.6111111   0.0000000), wk =   0.0000000
        k(  249) = (  -0.1666667  -0.1666667   0.0000000), wk =   0.0123457
        k(  250) = (  -0.0555556   0.2777778   0.0000000), wk =   0.0000000
        k(  251) = (   0.3333333  -0.1666667   0.0000000), wk =   0.0061728
        k(  252) = (   0.4444444   0.2777778   0.0000000), wk =   0.0000000
        k(  253) = (  -0.3888889   0.1666667   0.0000000), wk =   0.0123457
        k(  254) = (  -0.2777778   0.6111111   0.0000000), wk =   0.0000000
        k(  255) = (   0.2222222  -0.3888889   0.0000000), wk =   0.0123457
        k(  256) = (   0.3333333   0.0555556   0.0000000), wk =   0.0000000
        k(  257) = (  -0.1666667  -0.2222222   0.0000000), wk =   0.0123457
        k(  258) = (  -0.0555556   0.2222222   0.0000000), wk =   0.0000000
        k(  259) = (   0.3888889  -0.1666667   0.0000000), wk =   0.0123457
        k(  260) = (   0.5000000   0.2777778   0.0000000), wk =   0.0000000
        k(  261) = (  -0.2222222   0.3888889   0.0000000), wk =   0.0123457
        k(  262) = (  -0.1111111   0.8333333   0.0000000), wk =   0.0000000
        k(  263) = (  -0.4444444   0.1666667   0.0000000), wk =   0.0123457
        k(  264) = (  -0.3333333   0.6111111   0.0000000), wk =   0.0000000
        k(  265) = (   0.2777778  -0.4444444   0.0000000), wk =   0.0123457
        k(  266) = (   0.3888889   0.0000000   0.0000000), wk =   0.0000000
        k(  267) = (  -0.1666667  -0.2777778   0.0000000), wk =   0.0123457
        k(  268) = (  -0.0555556   0.1666667   0.0000000), wk =   0.0000000
        k(  269) = (   0.4444444  -0.1666667   0.0000000), wk =   0.0123457
        k(  270) = (   0.5555556   0.2777778   0.0000000), wk =   0.0000000
        k(  271) = (  -0.2777778   0.4444444   0.0000000), wk =   0.0123457
        k(  272) = (  -0.1666667   0.8888889   0.0000000), wk =   0.0000000
        k(  273) = (  -0.5000000   0.1666667   0.0000000), wk =   0.0123457
        k(  274) = (  -0.3888889   0.6111111   0.0000000), wk =   0.0000000
        k(  275) = (   0.3333333  -0.5000000   0.0000000), wk =   0.0123457
        k(  276) = (   0.4444444  -0.0555556   0.0000000), wk =   0.0000000
        k(  277) = (  -0.1666667  -0.3333333   0.0000000), wk =   0.0123457
        k(  278) = (  -0.0555556   0.1111111   0.0000000), wk =   0.0000000
        k(  279) = (   0.5000000  -0.1666667   0.0000000), wk =   0.0123457
        k(  280) = (   0.6111111   0.2777778   0.0000000), wk =   0.0000000
        k(  281) = (  -0.3333333   0.5000000   0.0000000), wk =   0.0123457
        k(  282) = (  -0.2222222   0.9444444   0.0000000), wk =   0.0000000
        k(  283) = (  -0.5555556   0.1666667   0.0000000), wk =   0.0123457
        k(  284) = (  -0.4444444   0.6111111   0.0000000), wk =   0.0000000
        k(  285) = (   0.3888889  -0.5555556   0.0000000), wk =   0.0123457
        k(  286) = (   0.5000000  -0.1111111   0.0000000), wk =   0.0000000
        k(  287) = (  -0.1666667  -0.3888889   0.0000000), wk =   0.0123457
        k(  288) = (  -0.0555556   0.0555556   0.0000000), wk =   0.0000000
        k(  289) = (   0.5555556  -0.1666667   0.0000000), wk =   0.0123457
        k(  290) = (   0.6666667   0.2777778   0.0000000), wk =   0.0000000
        k(  291) = (  -0.3888889   0.5555556   0.0000000), wk =   0.0123457
        k(  292) = (  -0.2777778   1.0000000   0.0000000), wk =   0.0000000
        k(  293) = (  -0.4444444   0.2222222   0.0000000), wk =   0.0061728
        k(  294) = (  -0.3333333   0.6666667   0.0000000), wk =   0.0000000
        k(  295) = (  -0.2222222  -0.2222222   0.0000000), wk =   0.0123457
        k(  296) = (  -0.1111111   0.2222222   0.0000000), wk =   0.0000000
        k(  297) = (   0.4444444  -0.2222222   0.0000000), wk =   0.0061728
        k(  298) = (   0.5555556   0.2222222   0.0000000), wk =   0.0000000
        k(  299) = (  -0.5000000   0.2222222   0.0000000), wk =   0.0123457
        k(  300) = (  -0.3888889   0.6666667   0.0000000), wk =   0.0000000
        k(  301) = (   0.2777778  -0.5000000   0.0000000), wk =   0.0123457
        k(  302) = (   0.3888889  -0.0555556   0.0000000), wk =   0.0000000
        k(  303) = (  -0.2222222  -0.2777778   0.0000000), wk =   0.0123457
        k(  304) = (  -0.1111111   0.1666667   0.0000000), wk =   0.0000000
        k(  305) = (   0.5000000  -0.2222222   0.0000000), wk =   0.0123457
        k(  306) = (   0.6111111   0.2222222   0.0000000), wk =   0.0000000
        k(  307) = (  -0.2777778   0.5000000   0.0000000), wk =   0.0123457
        k(  308) = (  -0.1666667   0.9444444   0.0000000), wk =   0.0000000
        k(  309) = (  -0.5555556   0.2222222   0.0000000), wk =   0.0123457
        k(  310) = (  -0.4444444   0.6666667   0.0000000), wk =   0.0000000
        k(  311) = (   0.3333333  -0.5555556   0.0000000), wk =   0.0123457
        k(  312) = (   0.4444444  -0.1111111   0.0000000), wk =   0.0000000
        k(  313) = (  -0.2222222  -0.3333333   0.0000000), wk =   0.0123457
        k(  314) = (  -0.1111111   0.1111111   0.0000000), wk =   0.0000000
        k(  315) = (   0.5555556  -0.2222222   0.0000000), wk =   0.0123457
        k(  316) = (   0.6666667   0.2222222   0.0000000), wk =   0.0000000
        k(  317) = (  -0.3333333   0.5555556   0.0000000), wk =   0.0123457
        k(  318) = (  -0.2222222   1.0000000   0.0000000), wk =   0.0000000
        k(  319) = (  -0.6111111   0.2222222   0.0000000), wk =   0.0123457
        k(  320) = (  -0.5000000   0.6666667   0.0000000), wk =   0.0000000
        k(  321) = (  -0.2222222  -0.3888889   0.0000000), wk =   0.0061728
        k(  322) = (  -0.1111111   0.0555556   0.0000000), wk =   0.0000000
        k(  323) = (   0.6111111  -0.2222222   0.0000000), wk =   0.0123457
        k(  324) = (   0.7222222   0.2222222   0.0000000), wk =   0.0000000
        k(  325) = (  -0.5555556   0.2777778   0.0000000), wk =   0.0061728
        k(  326) = (  -0.4444444   0.7222222   0.0000000), wk =   0.0000000
        k(  327) = (  -0.2777778  -0.2777778   0.0000000), wk =   0.0123457
        k(  328) = (  -0.1666667   0.1666667   0.0000000), wk =   0.0000000
        k(  329) = (   0.5555556  -0.2777778   0.0000000), wk =   0.0061728
        k(  330) = (   0.6666667   0.1666667   0.0000000), wk =   0.0000000
        k(  331) = (  -0.6111111   0.2777778   0.0000000), wk =   0.0123457
        k(  332) = (  -0.5000000   0.7222222   0.0000000), wk =   0.0000000
        k(  333) = (   0.3333333  -0.6111111   0.0000000), wk =   0.0123457
        k(  334) = (   0.4444444  -0.1666667   0.0000000), wk =   0.0000000
        k(  335) = (  -0.2777778  -0.3333333   0.0000000), wk =   0.0123457
        k(  336) = (  -0.1666667   0.1111111   0.0000000), wk =   0.0000000
        k(  337) = (   0.6111111  -0.2777778   0.0000000), wk =   0.0123457
        k(  338) = (   0.7222222   0.1666667   0.0000000), wk =   0.0000000
        k(  339) = (  -0.3333333   0.6111111   0.0000000), wk =   0.0123457
        k(  340) = (  -0.2222222   1.0555556   0.0000000), wk =   0.0000000
        k(  341) = (  -0.3333333  -0.3333333   0.0000000), wk =   0.0061728
        k(  342) = (  -0.2222222   0.1111111   0.0000000), wk =   0.0000000

     Dense  grid:  1108055 G-vectors     FFT dimensions: (  72,  72, 500)

     Dynamical RAM for                 wfc:       3.96 MB

     Dynamical RAM for     wfc (w. buffer):       3.96 MB

     Dynamical RAM for           str. fact:       4.23 MB

     Dynamical RAM for           local pot:       0.53 MB

     Dynamical RAM for          nlocal pot:       8.46 MB

     Dynamical RAM for                qrad:       2.29 MB

     Dynamical RAM for          rho,v,vnew:      13.82 MB

     Dynamical RAM for           G-vectors:       8.98 MB

     Dynamical RAM for          h,s,v(r/c):       0.16 MB

     Dynamical RAM for          <psi|beta>:       0.01 MB

     Dynamical RAM for                 psi:      15.86 MB

     Dynamical RAM for                hpsi:      15.86 MB

     Dynamical RAM for                spsi:      15.86 MB

     Dynamical RAM for      wfcinit/wfcrot:       8.46 MB

     Dynamical RAM for           addusdens:      95.10 MB

     Estimated static dynamical RAM per process >      61.07 MB

     Estimated max dynamical RAM per process >     156.17 MB

     Estimated total dynamical RAM >       1.22 GB
 ----2D----2D----2D----2D----2D----2D----2D----2D----2D----2D----2D----2D
  The code is running with the 2D cutoff
  Please refer to:
  Sohier, T., Calandra, M., & Mauri, F. (2017), 
  Density functional perturbation theory for gated two-dimensional heterostructures:
  Theoretical developments and application to flexural phonons in graphene.
  Physical Review B, 96(7), 75448. https://doi.org/10.1103/PhysRevB.96.075448
 ----2D----2D----2D----2D----2D----2D----2D----2D----2D----2D----2D----2D

     The potential is recalculated from file :
     /home/ext_chineason_graduate_utm_my/fgc/tmp/9.3/_ph0/fgc.save/charge-density


     negative rho (up, down):  5.457E-06 0.000E+00
     Starting wfcs are   16 atomic wfcs

     Band Structure Calculation
     Davidson diagonalization with overlap

     Computing kpt #:     1
     total cpu time spent up to now is       12.4 secs

     Computing kpt #:     2
     total cpu time spent up to now is       23.2 secs

     Computing kpt #:     3
     total cpu time spent up to now is       38.6 secs

     Computing kpt #:     4
     total cpu time spent up to now is       50.3 secs

     Computing kpt #:     5
     total cpu time spent up to now is       66.5 secs

     Computing kpt #:     6
     total cpu time spent up to now is       80.7 secs

     Computing kpt #:     7
     total cpu time spent up to now is       90.2 secs

     Computing kpt #:     8
     total cpu time spent up to now is      104.7 secs

     Computing kpt #:     9
     total cpu time spent up to now is      118.2 secs

     Computing kpt #:    10
     total cpu time spent up to now is      134.2 secs

     Computing kpt #:    11
     total cpu time spent up to now is      146.9 secs

     Computing kpt #:    12
     total cpu time spent up to now is      159.1 secs

     Computing kpt #:    13
     total cpu time spent up to now is      174.3 secs

     Computing kpt #:    14
     total cpu time spent up to now is      185.9 secs

     Computing kpt #:    15
     total cpu time spent up to now is      192.5 secs

     Computing kpt #:    16
     total cpu time spent up to now is      203.2 secs

     Computing kpt #:    17
     total cpu time spent up to now is      210.7 secs

     Computing kpt #:    18
     total cpu time spent up to now is      227.5 secs

     Computing kpt #:    19
     total cpu time spent up to now is      234.9 secs

     Computing kpt #:    20
     total cpu time spent up to now is      253.6 secs

     Computing kpt #:    21
     total cpu time spent up to now is      275.4 secs

     Computing kpt #:    22
     total cpu time spent up to now is      290.0 secs

     Computing kpt #:    23
     total cpu time spent up to now is      303.8 secs

     Computing kpt #:    24
     total cpu time spent up to now is      317.8 secs

     Computing kpt #:    25
     total cpu time spent up to now is      334.6 secs

     Computing kpt #:    26
     total cpu time spent up to now is      350.1 secs

     Computing kpt #:    27
     total cpu time spent up to now is      368.1 secs

     Computing kpt #:    28
     total cpu time spent up to now is      385.6 secs

     Computing kpt #:    29
     total cpu time spent up to now is      401.4 secs

     Computing kpt #:    30
     total cpu time spent up to now is      416.1 secs

     Computing kpt #:    31
     total cpu time spent up to now is      437.2 secs

     Computing kpt #:    32
     total cpu time spent up to now is      453.5 secs

     Computing kpt #:    33
     total cpu time spent up to now is      474.1 secs

     Computing kpt #:    34
     total cpu time spent up to now is      484.7 secs

     Computing kpt #:    35
     total cpu time spent up to now is      500.9 secs

     Computing kpt #:    36
     total cpu time spent up to now is      516.1 secs

     Computing kpt #:    37
     total cpu time spent up to now is      531.1 secs

     Computing kpt #:    38
     total cpu time spent up to now is      543.0 secs

     Computing kpt #:    39
     total cpu time spent up to now is      555.7 secs

     Computing kpt #:    40
     total cpu time spent up to now is      570.3 secs

     Computing kpt #:    41
     total cpu time spent up to now is      589.6 secs

     Computing kpt #:    42
     total cpu time spent up to now is      606.1 secs

     Computing kpt #:    43
     total cpu time spent up to now is      626.9 secs

     Computing kpt #:    44
     total cpu time spent up to now is      646.3 secs

     Computing kpt #:    45
     total cpu time spent up to now is      664.4 secs

     Computing kpt #:    46
     total cpu time spent up to now is      680.9 secs

     Computing kpt #:    47
     total cpu time spent up to now is      697.6 secs

     Computing kpt #:    48
     total cpu time spent up to now is      712.5 secs

     Computing kpt #:    49
     total cpu time spent up to now is      727.7 secs

     Computing kpt #:    50
     total cpu time spent up to now is      743.8 secs

     Computing kpt #:    51
     total cpu time spent up to now is      762.4 secs

     Computing kpt #:    52
     total cpu time spent up to now is      781.9 secs

     Computing kpt #:    53
     total cpu time spent up to now is      794.9 secs

     Computing kpt #:    54
     total cpu time spent up to now is      813.7 secs

     Computing kpt #:    55
     total cpu time spent up to now is      827.1 secs

     Computing kpt #:    56
     total cpu time spent up to now is      844.1 secs

     Computing kpt #:    57
     total cpu time spent up to now is      859.4 secs

     Computing kpt #:    58
     total cpu time spent up to now is      877.7 secs

     Computing kpt #:    59
     total cpu time spent up to now is      891.8 secs

     Computing kpt #:    60
     total cpu time spent up to now is      907.5 secs

     Computing kpt #:    61
     total cpu time spent up to now is      922.4 secs

     Computing kpt #:    62
     total cpu time spent up to now is      941.0 secs

     Computing kpt #:    63
     total cpu time spent up to now is      959.2 secs

     Computing kpt #:    64
     total cpu time spent up to now is      977.5 secs

     Computing kpt #:    65
     total cpu time spent up to now is      992.9 secs

     Computing kpt #:    66
     total cpu time spent up to now is     1012.7 secs

     Computing kpt #:    67
     total cpu time spent up to now is     1025.9 secs

     Computing kpt #:    68
     total cpu time spent up to now is     1044.3 secs

     Computing kpt #:    69
     total cpu time spent up to now is     1060.2 secs

     Computing kpt #:    70
     total cpu time spent up to now is     1078.7 secs

     Computing kpt #:    71
     total cpu time spent up to now is     1093.6 secs

     Computing kpt #:    72
     total cpu time spent up to now is     1109.4 secs

     Computing kpt #:    73
     total cpu time spent up to now is     1121.7 secs

     Computing kpt #:    74
     total cpu time spent up to now is     1137.2 secs

     Computing kpt #:    75
     total cpu time spent up to now is     1157.3 secs

     Computing kpt #:    76
     total cpu time spent up to now is     1174.8 secs

     Computing kpt #:    77
     total cpu time spent up to now is     1193.1 secs

     Computing kpt #:    78
     total cpu time spent up to now is     1207.3 secs

     Computing kpt #:    79
     total cpu time spent up to now is     1227.5 secs

     Computing kpt #:    80
     total cpu time spent up to now is     1236.2 secs

     Computing kpt #:    81
     total cpu time spent up to now is     1256.8 secs

     Computing kpt #:    82
     total cpu time spent up to now is     1272.6 secs

     Computing kpt #:    83
     total cpu time spent up to now is     1287.5 secs

     Computing kpt #:    84
     total cpu time spent up to now is     1305.1 secs

     Computing kpt #:    85
     total cpu time spent up to now is     1317.3 secs

     Computing kpt #:    86
     total cpu time spent up to now is     1332.3 secs

     Computing kpt #:    87
     total cpu time spent up to now is     1344.0 secs

     Computing kpt #:    88
     total cpu time spent up to now is     1357.9 secs

     Computing kpt #:    89
     total cpu time spent up to now is     1368.9 secs

     Computing kpt #:    90
     total cpu time spent up to now is     1379.8 secs

     Computing kpt #:    91
     total cpu time spent up to now is     1393.0 secs

     Computing kpt #:    92
     total cpu time spent up to now is     1402.6 secs

     Computing kpt #:    93
     total cpu time spent up to now is     1415.3 secs

     Computing kpt #:    94
     total cpu time spent up to now is     1426.8 secs

     Computing kpt #:    95
     total cpu time spent up to now is     1439.0 secs

     Computing kpt #:    96
     total cpu time spent up to now is     1449.0 secs

     Computing kpt #:    97
     total cpu time spent up to now is     1462.7 secs

     Computing kpt #:    98
     total cpu time spent up to now is     1474.7 secs

     Computing kpt #:    99
     total cpu time spent up to now is     1481.2 secs

     Computing kpt #:   100
     total cpu time spent up to now is     1490.3 secs

     Computing kpt #:   101
     total cpu time spent up to now is     1496.8 secs

     Computing kpt #:   102
     total cpu time spent up to now is     1509.6 secs

     Computing kpt #:   103
     total cpu time spent up to now is     1517.3 secs

     Computing kpt #:   104
     total cpu time spent up to now is     1531.0 secs

     Computing kpt #:   105
     total cpu time spent up to now is     1537.9 secs

     Computing kpt #:   106
     total cpu time spent up to now is     1544.6 secs

     Computing kpt #:   107
     total cpu time spent up to now is     1551.9 secs

     Computing kpt #:   108
     total cpu time spent up to now is     1566.9 secs

     Computing kpt #:   109
     total cpu time spent up to now is     1584.9 secs

     Computing kpt #:   110
     total cpu time spent up to now is     1593.4 secs

     Computing kpt #:   111
     total cpu time spent up to now is     1611.5 secs

     Computing kpt #:   112
     total cpu time spent up to now is     1626.3 secs

     Computing kpt #:   113
     total cpu time spent up to now is     1643.6 secs

     Computing kpt #:   114
     total cpu time spent up to now is     1654.0 secs

     Computing kpt #:   115
     total cpu time spent up to now is     1664.1 secs

     Computing kpt #:   116
     total cpu time spent up to now is     1676.4 secs

     Computing kpt #:   117
     total cpu time spent up to now is     1686.0 secs

     Computing kpt #:   118
     total cpu time spent up to now is     1697.3 secs

     Computing kpt #:   119
     total cpu time spent up to now is     1706.5 secs

     Computing kpt #:   120
     total cpu time spent up to now is     1721.5 secs

     Computing kpt #:   121
     total cpu time spent up to now is     1731.3 secs

     Computing kpt #:   122
     total cpu time spent up to now is     1741.8 secs

     Computing kpt #:   123
     total cpu time spent up to now is     1750.7 secs

     Computing kpt #:   124
     total cpu time spent up to now is     1757.2 secs

     Computing kpt #:   125
     total cpu time spent up to now is     1768.3 secs

     Computing kpt #:   126
     total cpu time spent up to now is     1779.4 secs

     Computing kpt #:   127
     total cpu time spent up to now is     1790.2 secs

     Computing kpt #:   128
     total cpu time spent up to now is     1801.5 secs

     Computing kpt #:   129
     total cpu time spent up to now is     1812.4 secs

     Computing kpt #:   130
     total cpu time spent up to now is     1825.0 secs

     Computing kpt #:   131
     total cpu time spent up to now is     1835.7 secs

     Computing kpt #:   132
     total cpu time spent up to now is     1846.0 secs

     Computing kpt #:   133
     total cpu time spent up to now is     1856.8 secs

     Computing kpt #:   134
     total cpu time spent up to now is     1872.0 secs

     Computing kpt #:   135
     total cpu time spent up to now is     1886.1 secs

     Computing kpt #:   136
     total cpu time spent up to now is     1897.1 secs

     Computing kpt #:   137
     total cpu time spent up to now is     1909.5 secs

     Computing kpt #:   138
     total cpu time spent up to now is     1920.8 secs

     Computing kpt #:   139
     total cpu time spent up to now is     1934.9 secs

     Computing kpt #:   140
     total cpu time spent up to now is     1948.6 secs

     Computing kpt #:   141
     total cpu time spent up to now is     1962.4 secs

     Computing kpt #:   142
     total cpu time spent up to now is     1973.1 secs

     Computing kpt #:   143
     total cpu time spent up to now is     1987.8 secs

     Computing kpt #:   144
     total cpu time spent up to now is     2006.5 secs

     Computing kpt #:   145
     total cpu time spent up to now is     2023.2 secs

     Computing kpt #:   146
     total cpu time spent up to now is     2039.1 secs

     Computing kpt #:   147
[...]
        k(  305) = (   0.5000000  -0.2222222   0.0000000), wk =   0.0123457
        k(  306) = (   0.6111111   0.2222222   0.0000000), wk =   0.0000000
        k(  307) = (  -0.2777778   0.5000000   0.0000000), wk =   0.0123457
        k(  308) = (  -0.1666667   0.9444444   0.0000000), wk =   0.0000000
        k(  309) = (  -0.5555556   0.2222222   0.0000000), wk =   0.0123457
        k(  310) = (  -0.4444444   0.6666667   0.0000000), wk =   0.0000000
        k(  311) = (   0.3333333  -0.5555556   0.0000000), wk =   0.0123457
        k(  312) = (   0.4444444  -0.1111111   0.0000000), wk =   0.0000000
        k(  313) = (  -0.2222222  -0.3333333   0.0000000), wk =   0.0123457
        k(  314) = (  -0.1111111   0.1111111   0.0000000), wk =   0.0000000
        k(  315) = (   0.5555556  -0.2222222   0.0000000), wk =   0.0123457
        k(  316) = (   0.6666667   0.2222222   0.0000000), wk =   0.0000000
        k(  317) = (  -0.3333333   0.5555556   0.0000000), wk =   0.0123457
        k(  318) = (  -0.2222222   1.0000000   0.0000000), wk =   0.0000000
        k(  319) = (  -0.6111111   0.2222222   0.0000000), wk =   0.0123457
        k(  320) = (  -0.5000000   0.6666667   0.0000000), wk =   0.0000000
        k(  321) = (  -0.2222222  -0.3888889   0.0000000), wk =   0.0061728
        k(  322) = (  -0.1111111   0.0555556   0.0000000), wk =   0.0000000
        k(  323) = (   0.6111111  -0.2222222   0.0000000), wk =   0.0123457
        k(  324) = (   0.7222222   0.2222222   0.0000000), wk =   0.0000000
        k(  325) = (  -0.5555556   0.2777778   0.0000000), wk =   0.0061728
        k(  326) = (  -0.4444444   0.7222222   0.0000000), wk =   0.0000000
        k(  327) = (  -0.2777778  -0.2777778   0.0000000), wk =   0.0123457
        k(  328) = (  -0.1666667   0.1666667   0.0000000), wk =   0.0000000
        k(  329) = (   0.5555556  -0.2777778   0.0000000), wk =   0.0061728
        k(  330) = (   0.6666667   0.1666667   0.0000000), wk =   0.0000000
        k(  331) = (  -0.6111111   0.2777778   0.0000000), wk =   0.0123457
        k(  332) = (  -0.5000000   0.7222222   0.0000000), wk =   0.0000000
        k(  333) = (   0.3333333  -0.6111111   0.0000000), wk =   0.0123457
        k(  334) = (   0.4444444  -0.1666667   0.0000000), wk =   0.0000000
        k(  335) = (  -0.2777778  -0.3333333   0.0000000), wk =   0.0123457
        k(  336) = (  -0.1666667   0.1111111   0.0000000), wk =   0.0000000
        k(  337) = (   0.6111111  -0.2777778   0.0000000), wk =   0.0123457
        k(  338) = (   0.7222222   0.1666667   0.0000000), wk =   0.0000000
        k(  339) = (  -0.3333333   0.6111111   0.0000000), wk =   0.0123457
        k(  340) = (  -0.2222222   1.0555556   0.0000000), wk =   0.0000000
        k(  341) = (  -0.3333333  -0.3333333   0.0000000), wk =   0.0061728
        k(  342) = (  -0.2222222   0.1111111   0.0000000), wk =   0.0000000

     PseudoPot. # 1 for C  read from file:
     ../pseudo/c_pbe_v1.2.uspp.F.UPF
     MD5 check sum: d1aef80898a10debaa0f26306b886e00
     Pseudo is Ultrasoft + core correction, Zval =  4.0
     Generated by new atomic code, or converted to UPF format
     Using radial grid of  721 points,  4 beta functions with: 
                l(1) =   0
                l(2) =   0
                l(3) =   1
                l(4) =   1
     Q(r) pseudized with  8 coefficients,  rinner =    1.100   1.100   1.100


     PseudoPot. # 2 for F  read from file:
     ../pseudo/f_pbe_v1.4.uspp.F.UPF
     MD5 check sum: 4c38b6a325caf53ec0e86aed9459de46
     Pseudo is Ultrasoft, Zval =  7.0
     Generated by new atomic code, or converted to UPF format
     Using radial grid of  799 points,  4 beta functions with: 
                l(1) =   0
                l(2) =   0
                l(3) =   1
                l(4) =   1
     Q(r) pseudized with  8 coefficients,  rinner =    0.950   0.950   0.950


     point group C_2  (2)   
     there are  2 classes
     the character table:

       E     C2   
A      1.00  1.00
B      1.00 -1.00

     the symmetry operations in each class and the name of the first element:

     E        1
          identity                                               
     C2       2
          180 deg rotation - cart. axis [1,0,0]                  


     Atomic displacements:
     There are   12 irreducible representations

     Representation     1      1 modes -  Not done in this run
     Irreps are as follows:

                     mode #   1
                     (  -0.00000  -0.00000   ) 
                     (  -0.00000  -0.00000   ) 
                     (  -0.00000  -0.00000   ) 
                     (  -0.00000  -0.00000   ) 
                     (  -0.00000  -0.00000   ) 
                     (  -0.00000  -0.00000   ) 
                     (  -0.27701  -0.00000   ) 
                     (   0.57458   0.29802   ) 
                     (  -0.05079   0.04157   ) 
                     (   0.26030  -0.09474   ) 
                     (   0.64186   0.08352   ) 
                     (  -0.03351   0.05643   ) 

     Representation     2      1 modes -  Not done in this run
     Irreps are as follows:

                     mode #   2
                     (  -0.11228  -0.00000   ) 
                     (  -0.05961   0.01304   ) 
                     (  -0.69190   0.07029   ) 
                     (   0.10551  -0.03840   ) 
                     (  -0.05156   0.03264   ) 
                     (  -0.62613   0.30270   ) 
                     (   0.00000  -0.00000   ) 
                     (   0.00000  -0.00000   ) 
                     (   0.00000  -0.00000   ) 
                     (   0.00000  -0.00000   ) 
                     (   0.00000  -0.00000   ) 
                     (   0.00000  -0.00000   ) 

     Representation     3      1 modes -  To be done
     Irreps are as follows:

                     mode #   3
                     (  -0.00000   0.00000   ) 
                     (  -0.00000   0.00000   ) 
                     (  -0.00000   0.00000   ) 
                     (  -0.00000   0.00000   ) 
                     (  -0.00000   0.00000   ) 
                     (  -0.00000   0.00000   ) 
                     (  -0.05205  -0.00000   ) 
                     (  -0.00854  -0.08039   ) 
                     (  -0.59160  -0.37518   ) 
                     (   0.04891  -0.01780   ) 
                     (  -0.03553  -0.07262   ) 
                     (  -0.68424  -0.15021   ) 

     Representation     4      1 modes -  Not done in this run
     Irreps are as follows:

                     mode #   4
                     (  -0.67757  -0.00000   ) 
                     (   0.05663   0.16095   ) 
                     (   0.10550  -0.02565   ) 
                     (   0.63670  -0.23174   ) 
                     (   0.10827   0.13188   ) 
                     (   0.09037  -0.06019   ) 
                     (   0.00000  -0.00000   ) 
                     (   0.00000  -0.00000   ) 
                     (   0.00000  -0.00000   ) 
                     (   0.00000  -0.00000   ) 
                     (   0.00000  -0.00000   ) 
                     (   0.00000  -0.00000   ) 

     Representation     5      1 modes -  Not done in this run
     Irreps are as follows:

                     mode #   5
                     (  -0.16821  -0.00000   ) 
                     (  -0.18833  -0.65703   ) 
                     (   0.03688   0.05641   ) 
                     (   0.15807  -0.05753   ) 
                     (  -0.40169  -0.55300   ) 
                     (   0.05394   0.04039   ) 
                     (  -0.00000  -0.00000   ) 
                     (  -0.00000  -0.00000   ) 
                     (  -0.00000  -0.00000   ) 
                     (  -0.00000  -0.00000   ) 
                     (  -0.00000  -0.00000   ) 
                     (  -0.00000  -0.00000   ) 

     Representation     6      1 modes -  Not done in this run
     Irreps are as follows:

                     mode #   6
                     (  -0.00000  -0.00000   ) 
                     (  -0.00000  -0.00000   ) 
                     (  -0.00000  -0.00000   ) 
                     (  -0.00000  -0.00000   ) 
                     (  -0.00000  -0.00000   ) 
                     (  -0.00000  -0.00000   ) 
                     (  -0.64850  -0.00000   ) 
                     (  -0.24475  -0.12085   ) 
                     (   0.06918   0.01236   ) 
                     (   0.60939  -0.22180   ) 
                     (  -0.27132  -0.02985   ) 
                     (   0.06923  -0.01205   ) 

     Representation     7      1 modes -  Not done in this run
     Irreps are as follows:

                     mode #   7
                     (  -0.00000  -0.00000   ) 
                     (  -0.00000  -0.00000   ) 
                     (  -0.00000  -0.00000   ) 
                     (  -0.00000  -0.00000   ) 
                     (  -0.00000  -0.00000   ) 
                     (  -0.00000  -0.00000   ) 
                     (  -0.68301   0.00000   ) 
                     (   0.16783   0.07046   ) 
                     (   0.01780   0.00681   ) 
                     (  -0.64182   0.23360   ) 
                     (  -0.18181  -0.00881   ) 
                     (  -0.01906  -0.00032   ) 

     Representation     8      1 modes -  Not done in this run
     Irreps are as follows:

                     mode #   8
                     (  -0.08772  -0.00000   ) 
                     (   0.49673   0.46921   ) 
                     (   0.02205  -0.15785   ) 
                     (  -0.08243   0.03000   ) 
                     (  -0.62726  -0.27103   ) 
                     (   0.03327   0.15587   ) 
                     (  -0.00000   0.00000   ) 
                     (  -0.00000   0.00000   ) 
                     (  -0.00000   0.00000   ) 
                     (  -0.00000   0.00000   ) 
                     (  -0.00000   0.00000   ) 
                     (  -0.00000   0.00000   ) 

     Representation     9      1 modes -  Not done in this run
     Irreps are as follows:

                     mode #   9
                     (  -0.00000  -0.00000   ) 
                     (  -0.00000  -0.00000   ) 
                     (  -0.00000  -0.00000   ) 
                     (  -0.00000  -0.00000   ) 
                     (  -0.00000  -0.00000   ) 
                     (  -0.00000  -0.00000   ) 
                     (  -0.02800  -0.00000   ) 
                     (  -0.03353  -0.00266   ) 
                     (  -0.61643  -0.34366   ) 
                     (  -0.02631   0.00958   ) 
                     (   0.03241  -0.00897   ) 
                     (   0.69679   0.11210   ) 

     Representation    10      1 modes -  Not done in this run
     Irreps are as follows:

                     mode #  10
                     (  -0.08843  -0.00000   ) 
                     (   0.14738  -0.04343   ) 
                     (   0.51120   0.45525   ) 
                     (  -0.08309   0.03024   ) 
                     (  -0.12364   0.09122   ) 
                     (  -0.63607  -0.25295   ) 
                     (  -0.00000   0.00000   ) 
                     (  -0.00000   0.00000   ) 
                     (  -0.00000   0.00000   ) 
                     (  -0.00000   0.00000   ) 
                     (  -0.00000   0.00000   ) 
                     (  -0.00000   0.00000   ) 

     Representation    11      1 modes -  Not done in this run
     Irreps are as follows:

                     mode #  11
                     (  -0.69605  -0.00000   ) 
                     (  -0.08132  -0.05362   ) 
                     (  -0.06772  -0.03794   ) 
                     (  -0.65407   0.23806   ) 
                     (   0.09476   0.02257   ) 
                     (   0.07662   0.01249   ) 
                     (   0.00000  -0.00000   ) 
                     (   0.00000  -0.00000   ) 
                     (   0.00000  -0.00000   ) 
                     (   0.00000  -0.00000   ) 
                     (   0.00000  -0.00000   ) 
                     (   0.00000  -0.00000   ) 

     Representation    12      1 modes -  Not done in this run
     Irreps are as follows:

                     mode #  12
                     (  -0.00000   0.00000   ) 
                     (  -0.00000   0.00000   ) 
                     (  -0.00000   0.00000   ) 
                     (  -0.00000   0.00000   ) 
                     (  -0.00000   0.00000   ) 
                     (  -0.00000   0.00000   ) 
                     (  -0.18086  -0.00000   ) 
                     (  -0.62861  -0.26569   ) 
                     (   0.02823   0.02748   ) 
                     (  -0.16995   0.06186   ) 
                     (   0.68157   0.03467   ) 
                     (  -0.03593  -0.01617   ) 

     Compute atoms:     3,    4,


     PHONON       :      1h11m CPU      2h12m WALL



     Representation #   3 mode #   3

     Self-consistent Calculation

      iter #   1 total cpu time :  8712.8 secs   av.it.:   7.0
      thresh= 1.000E-02 alpha_mix =  0.700 |ddv_scf|^2 =  1.197E-07

      iter #   2 total cpu time : 10249.7 secs   av.it.:  14.0
      thresh= 3.459E-05 alpha_mix =  0.700 |ddv_scf|^2 =  4.834E-08

      iter #   3 total cpu time : 11775.2 secs   av.it.:  13.6
      thresh= 2.199E-05 alpha_mix =  0.700 |ddv_scf|^2 =  4.055E-09

      iter #   4 total cpu time : 13305.4 secs   av.it.:  13.6
      thresh= 6.368E-06 alpha_mix =  0.700 |ddv_scf|^2 =  2.394E-10

      iter #   5 total cpu time : 14924.3 secs   av.it.:  14.0
      thresh= 1.547E-06 alpha_mix =  0.700 |ddv_scf|^2 =  2.401E-11

      iter #   6 total cpu time : 16633.8 secs   av.it.:  14.0
      thresh= 4.900E-07 alpha_mix =  0.700 |ddv_scf|^2 =  1.804E-12

      iter #   7 total cpu time : 18079.7 secs   av.it.:  13.7
      thresh= 1.343E-07 alpha_mix =  0.700 |ddv_scf|^2 =  3.391E-14

     End of self-consistent calculation

     Convergence has been achieved 

     Not diagonalizing because representation    0 is not done

     init_run     :      1.80s CPU      2.09s WALL (       1 calls)
     electrons    :   2604.42s CPU   4537.11s WALL (       1 calls)

     Called by init_run:
     wfcinit      :      0.00s CPU      0.01s WALL (       1 calls)
     wfcinit:atom :      0.85s CPU      1.13s WALL (     342 calls)
     wfcinit:wfcr :     82.72s CPU    126.42s WALL (     342 calls)
     potinit      :      0.25s CPU      0.28s WALL (       1 calls)
     hinit0       :      0.46s CPU      0.47s WALL (       1 calls)

     Called by electrons:
     c_bands      :   2604.36s CPU   4537.00s WALL (       1 calls)
     v_of_rho     :      0.36s CPU      0.41s WALL (       2 calls)
     v_h          :      0.03s CPU      0.03s WALL (       2 calls)
     v_xc         :      0.34s CPU      0.38s WALL (       2 calls)
     newd         :      0.47s CPU      0.89s WALL (       2 calls)

     Called by c_bands:
     init_us_2    :      9.69s CPU     18.86s WALL (    2394 calls)
     init_us_2:cp :      9.68s CPU     18.86s WALL (    2394 calls)
     cegterg      :   2489.52s CPU   4349.24s WALL (     670 calls)

     Called by sum_band:

     Called by *egterg:
     cdiaghg      :    194.10s CPU    421.85s WALL (    9718 calls)
     cegterg:over :    663.03s CPU   1238.00s WALL (    9376 calls)
     cegterg:upda :     59.00s CPU     96.40s WALL (    9376 calls)
     cegterg:last :     36.09s CPU     44.59s WALL (    1690 calls)
     h_psi        :   3818.83s CPU   6172.30s WALL (   31484 calls)
     s_psi        :    217.21s CPU    397.02s WALL (   53777 calls)
     g_psi        :      2.53s CPU      3.41s WALL (    9376 calls)

     Called by h_psi:
     h_psi:calbec :    603.10s CPU   1626.17s WALL (   31484 calls)
     vloc_psi     :   3094.77s CPU   4345.36s WALL (   31484 calls)
     add_vuspsi   :    112.07s CPU    183.02s WALL (   31484 calls)

     General routines
     calbec       :   1244.55s CPU   2863.55s WALL (   59078 calls)
     fft          :      1.97s CPU      2.77s WALL (     159 calls)
     ffts         :      5.30s CPU     10.45s WALL (     195 calls)
     fftw         :   4355.68s CPU   6683.75s WALL (  581603 calls)
     davcio       :      5.56s CPU     34.29s WALL (    7642 calls)

     Parallel routines

     PHONON       :      2h45m CPU      5h 2m WALL

     INITIALIZATION: 
     phq_setup    :      0.27s CPU      0.36s WALL (       1 calls)
     phq_init     :   1671.17s CPU   3357.18s WALL (       1 calls)

     phq_init     :   1671.17s CPU   3357.18s WALL (       1 calls)
     set_drhoc    :      0.47s CPU      0.52s WALL (       1 calls)
     init_vloc    :      0.40s CPU      0.40s WALL (       2 calls)
     init_us_1    :      0.16s CPU      0.17s WALL (       2 calls)
     init_us_2    :      9.69s CPU     18.86s WALL (    2394 calls)
     newd         :      0.47s CPU      0.89s WALL (       2 calls)
     dvanqq       :      4.05s CPU      4.06s WALL (       1 calls)
     drho         :   1615.49s CPU   3246.36s WALL (       1 calls)

     DYNAMICAL MATRIX:
     phqscf       :   5670.47s CPU  10218.68s WALL (       1 calls)
     dynmatrix    :      0.05s CPU      1.49s WALL (       1 calls)

     phqscf       :   5670.47s CPU  10218.68s WALL (       1 calls)
     solve_linter :   5630.62s CPU  10141.19s WALL (       1 calls)
     drhodv       :     39.85s CPU     77.36s WALL (       1 calls)



     phqscf       :   5670.47s CPU  10218.68s WALL (       1 calls)
     solve_linter :   5630.62s CPU  10141.19s WALL (       1 calls)

     solve_linter :   5630.62s CPU  10141.19s WALL (       1 calls)
     dvqpsi_us    :     27.09s CPU     42.88s WALL (     171 calls)
     sth_kernel   :   5596.58s CPU  10081.14s WALL (       7 calls)
     apply_dpot_b :     90.63s CPU    125.97s WALL (    1026 calls)
     ortho        :     38.95s CPU     68.91s WALL (    1197 calls)
     cgsolve      :   5286.22s CPU   9590.43s WALL (    1197 calls)
     incdrhoscf   :    144.30s CPU    206.91s WALL (    1197 calls)
     addusddens   :      5.95s CPU     11.69s WALL (      19 calls)
     dv_of_drho   :      0.68s CPU      0.84s WALL (       7 calls)
     mix_pot      :      0.19s CPU      1.63s WALL (       7 calls)
     psymdvscf    :      1.38s CPU      1.94s WALL (       7 calls)
     newdq        :      1.20s CPU      1.27s WALL (       7 calls)
     adddvscf     :     17.29s CPU     42.95s WALL (    1026 calls)
     drhodvus     :      0.01s CPU      0.02s WALL (       1 calls)

     dvqpsi_us    :     27.09s CPU     42.88s WALL (     171 calls)
     dvqpsi_us_on :      4.35s CPU     10.98s WALL (     171 calls)

     cgsolve      :   5286.22s CPU   9590.43s WALL (    1197 calls)
     ch_psi       :   3491.53s CPU   5938.97s WALL (   21096 calls)

     ch_psi       :   3491.53s CPU   5938.97s WALL (   21096 calls)
     h_psi        :   3818.83s CPU   6172.30s WALL (   31484 calls)
     last         :    750.76s CPU   1452.26s WALL (   21096 calls)

     h_psi        :   3818.83s CPU   6172.30s WALL (   31484 calls)
     add_vuspsi   :    112.07s CPU    183.02s WALL (   31484 calls)

     incdrhoscf   :    144.30s CPU    206.91s WALL (    1197 calls)
     addusdbec    :    120.12s CPU    271.10s WALL (    3249 calls)

     drhodvus     :      0.01s CPU      0.02s WALL (       1 calls)

      General routines
     calbec       :   1244.55s CPU   2863.55s WALL (   59078 calls)
     fft          :      1.97s CPU      2.77s WALL (     159 calls)
     ffts         :      5.30s CPU     10.45s WALL (     195 calls)
     fftw         :   4355.68s CPU   6683.75s WALL (  581603 calls)
     davcio       :      5.56s CPU     34.29s WALL (    7642 calls)
     write_rec    :      0.01s CPU      0.81s WALL (       8 calls)


     PHONON       :      2h45m CPU      5h 2m WALL


   This run was terminated on:  18:19:42   1Mar2024            

=------------------------------------------------------------------------------=
   JOB DONE.
=------------------------------------------------------------------------------=
