
     Program PHONON v.7.1 starts on  2Mar2024 at 17:20:37 

     This program is part of the open-source Quantum ESPRESSO suite
     for quantum simulation of materials; please cite
         "P. Giannozzi et al., J. Phys.:Condens. Matter 21 395502 (2009);
         "P. Giannozzi et al., J. Phys.:Condens. Matter 29 465901 (2017);
         "P. Giannozzi et al., J. Chem. Phys. 152 154105 (2020);
          URL http://www.quantum-espresso.org", 
     in publications or presentations arising from this work. More details at
     http://www.quantum-espresso.org/quote

     Parallel version (MPI), running on     8 processors

     MPI processes distributed on     1 nodes
     R & G space division:  proc/nbgrp/npool/nimage =       8
     349726 MiB available memory on the printing compute node when the environment starts

     Reading input from input.10.9
      Title line not specified: using 'default'.

     Reading xml data from directory:

     /home/ext_chineason_graduate_utm_my/fgc/tmp/10.9/fgc.save/

     IMPORTANT: XC functional enforced from input :
     Exchange-correlation= PBE
                           (   1   4   3   4   0   0   0)
     Any further DFT definition will be discarded
     Please, verify this is what you really want


     Parallelization info
     --------------------
     sticks:   dense  smooth     PW     G-vecs:    dense   smooth      PW
     Min         416     416    114               138498   138498   19368
     Max         417     417    115               138521   138521   19383
     Sum        3331    3331    913              1108055  1108055  154987

     Using Slab Decomposition

 ----2D----2D----2D----2D----2D----2D----2D----2D----2D----2D----2D----2D
  The code is running with the 2D cutoff
  Please refer to:
  Sohier, T., Calandra, M., & Mauri, F. (2017), 
  Density functional perturbation theory for gated two-dimensional heterostructures:
  Theoretical developments and application to flexural phonons in graphene.
  Physical Review B, 96(7), 75448. https://doi.org/10.1103/PhysRevB.96.075448
 ----2D----2D----2D----2D----2D----2D----2D----2D----2D----2D----2D----2D

     negative rho (up, down):  5.457E-06 0.000E+00
     Reading collected, re-writing distributed wavefunctions
        1 /  12 q-points for this run, from 10 to 10:
       N       xq(1)         xq(2)         xq(3) 
       1   0.000000000   0.000000000   0.000000000
       2   0.000000000   0.128300060   0.000000000
       3   0.000000000   0.256600120   0.000000000
       4   0.000000000   0.384900179   0.000000000
       5   0.000000000   0.513200239   0.000000000
       6   0.111111111   0.192450090   0.000000000
       7   0.111111111   0.320750150   0.000000000
       8   0.111111111   0.449050209   0.000000000
       9   0.111111111   0.577350269   0.000000000
      10   0.222222222   0.384900179   0.000000000
      11   0.222222222   0.513200239   0.000000000
      12   0.333333333   0.577350269   0.000000000


     Calculation of q =    0.2222222   0.3849002   0.0000000
     Subspace diagonalization in iterative solution of the eigenvalue problem:
     a serial algorithm will be used


     Parallelization info
     --------------------
     sticks:   dense  smooth     PW     G-vecs:    dense   smooth      PW
     Min         416     416    119               138498   138498   20835
     Max         417     417    120               138521   138521   20854
     Sum        3331    3331    955              1108055  1108055  166759

     Using Slab Decomposition


     Title: 
     default                                                                    


     bravais-lattice index     =            4
     lattice parameter (alat)  =       4.9233  a.u.
     unit-cell volume          =     733.8532 (a.u.)^3
     number of atoms/cell      =            4
     number of atomic types    =            2
     number of electrons       =        22.00
     number of Kohn-Sham states=           15
     kinetic-energy cutoff     =     500.0000  Ry
     charge density cutoff     =    2000.0000  Ry
     Exchange-correlation= PBE
                           (   1   4   3   4   0   0   0)

     celldm(1)=   4.923251  celldm(2)=   0.000000  celldm(3)=   7.101051
     celldm(4)=   0.000000  celldm(5)=   0.000000  celldm(6)=   0.000000

     crystal axes: (cart. coord. in units of alat)
               a(1) = (   1.000000   0.000000   0.000000 )  
               a(2) = (  -0.500000   0.866025   0.000000 )  
               a(3) = (   0.000000   0.000000   7.101051 )  

     reciprocal axes: (cart. coord. in units 2 pi/alat)
               b(1) = (  1.000000  0.577350 -0.000000 )  
               b(2) = (  0.000000  1.154701  0.000000 )  
               b(3) = (  0.000000 -0.000000  0.140824 )  


     PseudoPot. # 1 for C  read from file:
     ../pseudo/c_pbe_v1.2.uspp.F.UPF
     MD5 check sum: d1aef80898a10debaa0f26306b886e00
     Pseudo is Ultrasoft + core correction, Zval =  4.0
     Generated by new atomic code, or converted to UPF format
     Using radial grid of  721 points,  4 beta functions with: 
                l(1) =   0
                l(2) =   0
                l(3) =   1
                l(4) =   1
     Q(r) pseudized with  8 coefficients,  rinner =    1.100   1.100   1.100


     PseudoPot. # 2 for F  read from file:
     ../pseudo/f_pbe_v1.4.uspp.F.UPF
     MD5 check sum: 4c38b6a325caf53ec0e86aed9459de46
     Pseudo is Ultrasoft, Zval =  7.0
     Generated by new atomic code, or converted to UPF format
     Using radial grid of  799 points,  4 beta functions with: 
                l(1) =   0
                l(2) =   0
                l(3) =   1
                l(4) =   1
     Q(r) pseudized with  8 coefficients,  rinner =    0.950   0.950   0.950


     atomic species   valence    mass     pseudopotential
        C              4.00    12.01070     C ( 1.00)
        F              7.00    18.99840     F ( 1.00)

     12 Sym. Ops., with inversion, found


                                    s                        frac. trans.

      isym =  1     identity                                     

 cryst.   s( 1) = (     1          0          0      )
                  (     0          1          0      )
                  (     0          0          1      )

 cart.    s( 1) = (  1.0000000  0.0000000  0.0000000 )
                  (  0.0000000  1.0000000  0.0000000 )
                  (  0.0000000  0.0000000  1.0000000 )


      isym =  2     180 deg rotation - cryst. axis [1,1,0]       

 cryst.   s( 2) = (     0          1          0      )    f =(  0.5000000 )
                  (     1          0          0      )       (  0.5000000 )
                  (     0          0         -1      )       (  0.0000000 )

 cart.    s( 2) = ( -0.5000000  0.8660254  0.0000000 )    f =(  0.2500000 )
                  (  0.8660254  0.5000000  0.0000000 )       (  0.4330127 )
                  (  0.0000000  0.0000000 -1.0000000 )       (  0.0000000 )


      isym =  3     120 deg rotation - cryst. axis [0,0,1]       

 cryst.   s( 3) = (     0          1          0      )    f =( -0.5000000 )
                  (    -1         -1          0      )       ( -0.5000000 )
                  (     0          0          1      )       (  0.0000000 )

 cart.    s( 3) = ( -0.5000000 -0.8660254  0.0000000 )    f =( -0.2500000 )
                  (  0.8660254 -0.5000000  0.0000000 )       ( -0.4330127 )
                  (  0.0000000  0.0000000  1.0000000 )       (  0.0000000 )


      isym =  4     120 deg rotation - cryst. axis [0,0,-1]      

 cryst.   s( 4) = (    -1         -1          0      )    f =(  0.0000000 )
                  (     1          0          0      )       ( -0.5000000 )
                  (     0          0          1      )       (  0.0000000 )

 cart.    s( 4) = ( -0.5000000  0.8660254  0.0000000 )    f =(  0.2500000 )
                  ( -0.8660254 -0.5000000  0.0000000 )       ( -0.4330127 )
                  (  0.0000000  0.0000000  1.0000000 )       (  0.0000000 )


      isym =  5     180 deg rotation - cryst. axis [0,1,0]       

 cryst.   s( 5) = (    -1         -1          0      )    f =(  0.0000000 )
                  (     0          1          0      )       ( -0.5000000 )
                  (     0          0         -1      )       (  0.0000000 )

 cart.    s( 5) = ( -0.5000000 -0.8660254  0.0000000 )    f =(  0.2500000 )
                  ( -0.8660254  0.5000000  0.0000000 )       ( -0.4330127 )
                  (  0.0000000  0.0000000 -1.0000000 )       (  0.0000000 )


      isym =  6     180 deg rotation - cart. axis [1,0,0]        

 cryst.   s( 6) = (     1          0          0      )
                  (    -1         -1          0      )
                  (     0          0         -1      )

 cart.    s( 6) = (  1.0000000  0.0000000  0.0000000 )
                  (  0.0000000 -1.0000000  0.0000000 )
                  (  0.0000000  0.0000000 -1.0000000 )


      isym =  7     inversion                                    

 cryst.   s( 7) = (    -1          0          0      )
                  (     0         -1          0      )
                  (     0          0         -1      )

 cart.    s( 7) = ( -1.0000000  0.0000000  0.0000000 )
                  (  0.0000000 -1.0000000  0.0000000 )
                  (  0.0000000  0.0000000 -1.0000000 )


      isym =  8     inv. 180 deg rotation - cart. axis [1,0,0]   

 cryst.   s( 8) = (    -1          0          0      )
                  (     1          1          0      )
                  (     0          0          1      )

 cart.    s( 8) = ( -1.0000000 -0.0000000  0.0000000 )
                  (  0.0000000  1.0000000  0.0000000 )
                  (  0.0000000  0.0000000  1.0000000 )


      isym =  9     inv. 120 deg rotation - cryst. axis [0,0,1]  

 cryst.   s( 9) = (     0         -1          0      )    f =(  0.5000000 )
                  (     1          1          0      )       ( -0.5000000 )
                  (     0          0         -1      )       (  0.0000000 )

 cart.    s( 9) = (  0.5000000  0.8660254  0.0000000 )    f =(  0.7500000 )
                  ( -0.8660254  0.5000000  0.0000000 )       ( -0.4330127 )
                  (  0.0000000  0.0000000 -1.0000000 )       (  0.0000000 )


      isym = 10     inv. 120 deg rotation - cryst. axis [0,0,-1] 

 cryst.   s(10) = (     1          1          0      )    f =(  0.0000000 )
                  (    -1          0          0      )       (  0.5000000 )
                  (     0          0         -1      )       (  0.0000000 )

 cart.    s(10) = (  0.5000000 -0.8660254  0.0000000 )    f =( -0.2500000 )
                  (  0.8660254  0.5000000  0.0000000 )       (  0.4330127 )
                  (  0.0000000  0.0000000 -1.0000000 )       (  0.0000000 )


      isym = 11     inv. 180 deg rotation - cryst. axis [0,1,0]  

 cryst.   s(11) = (     1          1          0      )    f =(  0.0000000 )
                  (     0         -1          0      )       ( -0.5000000 )
                  (     0          0          1      )       (  0.0000000 )

 cart.    s(11) = (  0.5000000  0.8660254  0.0000000 )    f =(  0.2500000 )
                  (  0.8660254 -0.5000000  0.0000000 )       ( -0.4330127 )
                  (  0.0000000  0.0000000  1.0000000 )       (  0.0000000 )


      isym = 12     inv. 180 deg rotation - cryst. axis [1,1,0]  

 cryst.   s(12) = (     0         -1          0      )    f =( -0.5000000 )
                  (    -1          0          0      )       ( -0.5000000 )
                  (     0          0          1      )       (  0.0000000 )

 cart.    s(12) = (  0.5000000 -0.8660254  0.0000000 )    f =( -0.2500000 )
                  ( -0.8660254 -0.5000000  0.0000000 )       ( -0.4330127 )
                  (  0.0000000  0.0000000  1.0000000 )       (  0.0000000 )


     point group D_3d (-3m) 
     there are  6 classes
     the character table:

       E     2C3   3C2'  i     2S6   3s_d 
A_1g   1.00  1.00  1.00  1.00  1.00  1.00
A_2g   1.00  1.00 -1.00  1.00  1.00 -1.00
E_g    2.00 -1.00  0.00  2.00 -1.00  0.00
A_1u   1.00  1.00  1.00 -1.00 -1.00 -1.00
A_2u   1.00  1.00 -1.00 -1.00 -1.00  1.00
E_u    2.00 -1.00  0.00 -2.00  1.00  0.00

     the symmetry operations in each class and the name of the first element:

     E        1
          identity                                               
     2C3      3    4
          120 deg rotation - cryst. axis [0,0,1]                 
     3C2'     2    6    5
          180 deg rotation - cryst. axis [1,1,0]                 
     i        7
          inversion                                              
     2S6      9   10
          inv. 120 deg rotation - cryst. axis [0,0,1]            
     3s_d     8   11   12
          inv. 180 deg rotation - cart. axis [1,0,0]             

   Cartesian axes

     site n.     atom                  positions (alat units)
         1           C   tau(   1) = (   0.5000000   0.5773503  -0.0938425  )
         2           C   tau(   2) = (  -0.0000000   0.2886751   0.0938425  )
         3           F   tau(   3) = (   0.5000000   0.5773503  -0.6234719  )
         4           F   tau(   4) = (  -0.0000000   0.2886751   0.6234719  )

   Crystallographic axes

     site n.     atom                  positions (cryst. coord.)
         1           C   tau(   1) = (  0.8333333  0.6666667 -0.0132153  )
         2           C   tau(   2) = (  0.1666667  0.3333333  0.0132153  )
         3           F   tau(   3) = (  0.8333333  0.6666667 -0.0877999  )
         4           F   tau(   4) = (  0.1666667  0.3333333  0.0877999  )

     number of k points=   342  Marzari-Vanderbilt smearing, width (Ry)=  0.0010
                       cart. coord. in units 2pi/alat
        k(    1) = (   0.0000000   0.0000000   0.0000000), wk =   0.0061728
        k(    2) = (   0.2222222   0.3849002   0.0000000), wk =   0.0000000
        k(    3) = (   0.0000000   0.0641500   0.0000000), wk =   0.0123457
        k(    4) = (   0.2222222   0.4490502   0.0000000), wk =   0.0000000
        k(    5) = (   0.0000000   0.1283001   0.0000000), wk =   0.0123457
        k(    6) = (   0.2222222   0.5132002   0.0000000), wk =   0.0000000
        k(    7) = (   0.0000000   0.1924501   0.0000000), wk =   0.0123457
        k(    8) = (   0.2222222   0.5773503   0.0000000), wk =   0.0000000
        k(    9) = (   0.0000000   0.2566001   0.0000000), wk =   0.0123457
        k(   10) = (   0.2222222   0.6415003   0.0000000), wk =   0.0000000
        k(   11) = (   0.0000000   0.3207501   0.0000000), wk =   0.0123457
        k(   12) = (   0.2222222   0.7056503   0.0000000), wk =   0.0000000
        k(   13) = (   0.0000000   0.3849002   0.0000000), wk =   0.0123457
        k(   14) = (   0.2222222   0.7698004   0.0000000), wk =   0.0000000
        k(   15) = (   0.0000000   0.4490502   0.0000000), wk =   0.0123457
        k(   16) = (   0.2222222   0.8339504   0.0000000), wk =   0.0000000
        k(   17) = (   0.0000000   0.5132002   0.0000000), wk =   0.0123457
        k(   18) = (   0.2222222   0.8981004   0.0000000), wk =   0.0000000
        k(   19) = (   0.0000000  -0.5773503   0.0000000), wk =   0.0123457
        k(   20) = (   0.2222222  -0.1924501   0.0000000), wk =   0.0000000
        k(   21) = (   0.0555556   0.0962250   0.0000000), wk =   0.0061728
        k(   22) = (   0.2777778   0.4811252   0.0000000), wk =   0.0000000
        k(   23) = (   0.0555556   0.1603751   0.0000000), wk =   0.0123457
        k(   24) = (   0.2777778   0.5452753   0.0000000), wk =   0.0000000
        k(   25) = (   0.0555556   0.2245251   0.0000000), wk =   0.0123457
        k(   26) = (   0.2777778   0.6094253   0.0000000), wk =   0.0000000
        k(   27) = (   0.0555556   0.2886751   0.0000000), wk =   0.0123457
        k(   28) = (   0.2777778   0.6735753   0.0000000), wk =   0.0000000
        k(   29) = (   0.0555556   0.3528252   0.0000000), wk =   0.0123457
        k(   30) = (   0.2777778   0.7377253   0.0000000), wk =   0.0000000
        k(   31) = (   0.0555556   0.4169752   0.0000000), wk =   0.0123457
        k(   32) = (   0.2777778   0.8018754   0.0000000), wk =   0.0000000
        k(   33) = (   0.0555556   0.4811252   0.0000000), wk =   0.0123457
        k(   34) = (   0.2777778   0.8660254   0.0000000), wk =   0.0000000
        k(   35) = (   0.0555556   0.5452753   0.0000000), wk =   0.0123457
        k(   36) = (   0.2777778   0.9301754   0.0000000), wk =   0.0000000
        k(   37) = (   0.1111111   0.1924501   0.0000000), wk =   0.0061728
        k(   38) = (   0.3333333   0.5773503   0.0000000), wk =   0.0000000
        k(   39) = (   0.1111111   0.2566001   0.0000000), wk =   0.0123457
        k(   40) = (   0.3333333   0.6415003   0.0000000), wk =   0.0000000
        k(   41) = (   0.1111111   0.3207501   0.0000000), wk =   0.0123457
        k(   42) = (   0.3333333   0.7056503   0.0000000), wk =   0.0000000
        k(   43) = (   0.1111111   0.3849002   0.0000000), wk =   0.0123457
        k(   44) = (   0.3333333   0.7698004   0.0000000), wk =   0.0000000
        k(   45) = (   0.1111111   0.4490502   0.0000000), wk =   0.0123457
        k(   46) = (   0.3333333   0.8339504   0.0000000), wk =   0.0000000
        k(   47) = (   0.1111111   0.5132002   0.0000000), wk =   0.0123457
        k(   48) = (   0.3333333   0.8981004   0.0000000), wk =   0.0000000
        k(   49) = (   0.1111111   0.5773503   0.0000000), wk =   0.0123457
        k(   50) = (   0.3333333   0.9622504   0.0000000), wk =   0.0000000
        k(   51) = (   0.1666667   0.2886751   0.0000000), wk =   0.0061728
        k(   52) = (   0.3888889   0.6735753   0.0000000), wk =   0.0000000
        k(   53) = (   0.1666667   0.3528252   0.0000000), wk =   0.0123457
        k(   54) = (   0.3888889   0.7377253   0.0000000), wk =   0.0000000
        k(   55) = (   0.1666667   0.4169752   0.0000000), wk =   0.0123457
        k(   56) = (   0.3888889   0.8018754   0.0000000), wk =   0.0000000
        k(   57) = (   0.1666667   0.4811252   0.0000000), wk =   0.0123457
        k(   58) = (   0.3888889   0.8660254   0.0000000), wk =   0.0000000
        k(   59) = (   0.1666667   0.5452753   0.0000000), wk =   0.0123457
        k(   60) = (   0.3888889   0.9301754   0.0000000), wk =   0.0000000
        k(   61) = (   0.2222222   0.3849002   0.0000000), wk =   0.0061728
        k(   62) = (   0.4444444   0.7698004   0.0000000), wk =   0.0000000
        k(   63) = (   0.2222222   0.4490502   0.0000000), wk =   0.0123457
        k(   64) = (   0.4444444   0.8339504   0.0000000), wk =   0.0000000
        k(   65) = (   0.2222222   0.5132002   0.0000000), wk =   0.0123457
        k(   66) = (   0.4444444   0.8981004   0.0000000), wk =   0.0000000
        k(   67) = (   0.2222222   0.5773503   0.0000000), wk =   0.0123457
        k(   68) = (   0.4444444   0.9622504   0.0000000), wk =   0.0000000
        k(   69) = (   0.2777778   0.4811252   0.0000000), wk =   0.0061728
        k(   70) = (   0.5000000   0.8660254   0.0000000), wk =   0.0000000
        k(   71) = (   0.2777778   0.5452753   0.0000000), wk =   0.0123457
        k(   72) = (   0.5000000   0.9301754   0.0000000), wk =   0.0000000
        k(   73) = (   0.3333333   0.5773503   0.0000000), wk =   0.0061728
        k(   74) = (   0.5555556   0.9622504   0.0000000), wk =   0.0000000
        k(   75) = (  -0.0555556  -0.0320750   0.0000000), wk =   0.0123457
        k(   76) = (   0.1666667   0.3528252   0.0000000), wk =   0.0000000
        k(   77) = (   0.0555556  -0.0320750   0.0000000), wk =   0.0123457
        k(   78) = (   0.2777778   0.3528252   0.0000000), wk =   0.0000000
        k(   79) = (  -0.1111111  -0.0641500   0.0000000), wk =   0.0123457
        k(   80) = (   0.1111111   0.3207501   0.0000000), wk =   0.0000000
        k(   81) = (   0.1111111  -0.0641500   0.0000000), wk =   0.0123457
        k(   82) = (   0.3333333   0.3207501   0.0000000), wk =   0.0000000
        k(   83) = (  -0.1666667  -0.0962250   0.0000000), wk =   0.0123457
        k(   84) = (   0.0555556   0.2886751   0.0000000), wk =   0.0000000
        k(   85) = (   0.1666667  -0.0962250   0.0000000), wk =   0.0123457
        k(   86) = (   0.3888889   0.2886751   0.0000000), wk =   0.0000000
        k(   87) = (  -0.2222222  -0.1283001   0.0000000), wk =   0.0123457
        k(   88) = (   0.0000000   0.2566001   0.0000000), wk =   0.0000000
        k(   89) = (   0.2222222  -0.1283001   0.0000000), wk =   0.0123457
        k(   90) = (   0.4444444   0.2566001   0.0000000), wk =   0.0000000
        k(   91) = (  -0.2777778  -0.1603751   0.0000000), wk =   0.0123457
        k(   92) = (  -0.0555556   0.2245251   0.0000000), wk =   0.0000000
        k(   93) = (   0.2777778  -0.1603751   0.0000000), wk =   0.0123457
        k(   94) = (   0.5000000   0.2245251   0.0000000), wk =   0.0000000
        k(   95) = (  -0.3333333  -0.1924501   0.0000000), wk =   0.0123457
        k(   96) = (  -0.1111111   0.1924501   0.0000000), wk =   0.0000000
        k(   97) = (   0.3333333  -0.1924501   0.0000000), wk =   0.0123457
        k(   98) = (   0.5555556   0.1924501   0.0000000), wk =   0.0000000
        k(   99) = (  -0.3888889  -0.2245251   0.0000000), wk =   0.0123457
        k(  100) = (  -0.1666667   0.1603751   0.0000000), wk =   0.0000000
        k(  101) = (   0.3888889  -0.2245251   0.0000000), wk =   0.0123457
        k(  102) = (   0.6111111   0.1603751   0.0000000), wk =   0.0000000
        k(  103) = (  -0.4444444  -0.2566001   0.0000000), wk =   0.0123457
        k(  104) = (  -0.2222222   0.1283001   0.0000000), wk =   0.0000000
        k(  105) = (   0.4444444  -0.2566001   0.0000000), wk =   0.0123457
        k(  106) = (   0.6666667   0.1283001   0.0000000), wk =   0.0000000
        k(  107) = (  -0.5000000   0.2886751   0.0000000), wk =   0.0061728
        k(  108) = (  -0.2777778   0.6735753   0.0000000), wk =   0.0000000
        k(  109) = (  -0.1111111  -0.0000000   0.0000000), wk =   0.0123457
        k(  110) = (   0.1111111   0.3849002   0.0000000), wk =   0.0000000
        k(  111) = (  -0.0555556  -0.0962250   0.0000000), wk =   0.0061728
        k(  112) = (   0.1666667   0.2886751   0.0000000), wk =   0.0000000
        k(  113) = (  -0.0555556   0.0962250   0.0000000), wk =   0.0123457
        k(  114) = (   0.1666667   0.4811252   0.0000000), wk =   0.0000000
        k(  115) = (  -0.1666667  -0.0320750   0.0000000), wk =   0.0123457
        k(  116) = (   0.0555556   0.3528252   0.0000000), wk =   0.0000000
        k(  117) = (   0.1111111  -0.1283001   0.0000000), wk =   0.0123457
        k(  118) = (   0.3333333   0.2566001   0.0000000), wk =   0.0000000
        k(  119) = (  -0.0555556  -0.1603751   0.0000000), wk =   0.0123457
        k(  120) = (   0.1666667   0.2245251   0.0000000), wk =   0.0000000
        k(  121) = (  -0.0555556   0.1603751   0.0000000), wk =   0.0123457
        k(  122) = (   0.1666667   0.5452753   0.0000000), wk =   0.0000000
        k(  123) = (  -0.1111111   0.1283001   0.0000000), wk =   0.0123457
        k(  124) = (   0.1111111   0.5132002   0.0000000), wk =   0.0000000
        k(  125) = (  -0.2222222  -0.0641500   0.0000000), wk =   0.0123457
        k(  126) = (   0.0000000   0.3207501   0.0000000), wk =   0.0000000
        k(  127) = (   0.1666667  -0.1603751   0.0000000), wk =   0.0123457
        k(  128) = (   0.3888889   0.2245251   0.0000000), wk =   0.0000000
        k(  129) = (  -0.0555556  -0.2245251   0.0000000), wk =   0.0123457
        k(  130) = (   0.1666667   0.1603751   0.0000000), wk =   0.0000000
        k(  131) = (  -0.0555556   0.2245251   0.0000000), wk =   0.0123457
        k(  132) = (   0.1666667   0.6094253   0.0000000), wk =   0.0000000
        k(  133) = (  -0.1666667   0.1603751   0.0000000), wk =   0.0123457
        k(  134) = (   0.0555556   0.5452753   0.0000000), wk =   0.0000000
        k(  135) = (  -0.2777778  -0.0962250   0.0000000), wk =   0.0123457
        k(  136) = (  -0.0555556   0.2886751   0.0000000), wk =   0.0000000
        k(  137) = (   0.2222222  -0.1924501   0.0000000), wk =   0.0123457
        k(  138) = (   0.4444444   0.1924501   0.0000000), wk =   0.0000000
        k(  139) = (  -0.0555556  -0.2886751   0.0000000), wk =   0.0123457
        k(  140) = (   0.1666667   0.0962250   0.0000000), wk =   0.0000000
        k(  141) = (  -0.0555556   0.2886751   0.0000000), wk =   0.0123457
        k(  142) = (   0.1666667   0.6735753   0.0000000), wk =   0.0000000
        k(  143) = (  -0.2222222   0.1924501   0.0000000), wk =   0.0123457
        k(  144) = (   0.0000000   0.5773503   0.0000000), wk =   0.0000000
        k(  145) = (  -0.3333333  -0.1283001   0.0000000), wk =   0.0123457
        k(  146) = (  -0.1111111   0.2566001   0.0000000), wk =   0.0000000
        k(  147) = (   0.2777778  -0.2245251   0.0000000), wk =   0.0123457
        k(  148) = (   0.5000000   0.1603751   0.0000000), wk =   0.0000000
        k(  149) = (  -0.0555556  -0.3528252   0.0000000), wk =   0.0123457
        k(  150) = (   0.1666667   0.0320750   0.0000000), wk =   0.0000000
        k(  151) = (  -0.0555556   0.3528252   0.0000000), wk =   0.0123457
        k(  152) = (   0.1666667   0.7377253   0.0000000), wk =   0.0000000
        k(  153) = (  -0.2777778   0.2245251   0.0000000), wk =   0.0123457
        k(  154) = (  -0.0555556   0.6094253   0.0000000), wk =   0.0000000
        k(  155) = (  -0.3888889  -0.1603751   0.0000000), wk =   0.0123457
        k(  156) = (  -0.1666667   0.2245251   0.0000000), wk =   0.0000000
        k(  157) = (   0.3333333  -0.2566001   0.0000000), wk =   0.0123457
        k(  158) = (   0.5555556   0.1283001   0.0000000), wk =   0.0000000
        k(  159) = (  -0.0555556  -0.4169752   0.0000000), wk =   0.0123457
        k(  160) = (   0.1666667  -0.0320750   0.0000000), wk =   0.0000000
        k(  161) = (  -0.0555556   0.4169752   0.0000000), wk =   0.0123457
        k(  162) = (   0.1666667   0.8018754   0.0000000), wk =   0.0000000
        k(  163) = (  -0.3333333   0.2566001   0.0000000), wk =   0.0123457
        k(  164) = (  -0.1111111   0.6415003   0.0000000), wk =   0.0000000
        k(  165) = (  -0.4444444  -0.1924501   0.0000000), wk =   0.0123457
        k(  166) = (  -0.2222222   0.1924501   0.0000000), wk =   0.0000000
        k(  167) = (   0.3888889  -0.2886751   0.0000000), wk =   0.0123457
        k(  168) = (   0.6111111   0.0962250   0.0000000), wk =   0.0000000
        k(  169) = (  -0.0555556  -0.4811252   0.0000000), wk =   0.0123457
        k(  170) = (   0.1666667  -0.0962250   0.0000000), wk =   0.0000000
        k(  171) = (  -0.0555556   0.4811252   0.0000000), wk =   0.0123457
        k(  172) = (   0.1666667   0.8660254   0.0000000), wk =   0.0000000
        k(  173) = (  -0.3888889   0.2886751   0.0000000), wk =   0.0123457
        k(  174) = (  -0.1666667   0.6735753   0.0000000), wk =   0.0000000
        k(  175) = (  -0.5000000  -0.2245251   0.0000000), wk =   0.0123457
        k(  176) = (  -0.2777778   0.1603751   0.0000000), wk =   0.0000000
        k(  177) = (   0.4444444  -0.3207501   0.0000000), wk =   0.0123457
        k(  178) = (   0.6666667   0.0641500   0.0000000), wk =   0.0000000
        k(  179) = (  -0.0555556  -0.5452753   0.0000000), wk =   0.0123457
        k(  180) = (   0.1666667  -0.1603751   0.0000000), wk =   0.0000000
        k(  181) = (  -0.0555556   0.5452753   0.0000000), wk =   0.0123457
        k(  182) = (   0.1666667   0.9301754   0.0000000), wk =   0.0000000
        k(  183) = (  -0.4444444   0.3207501   0.0000000), wk =   0.0123457
        k(  184) = (  -0.2222222   0.7056503   0.0000000), wk =   0.0000000
        k(  185) = (  -0.2222222  -0.0000000   0.0000000), wk =   0.0123457
        k(  186) = (   0.0000000   0.3849002   0.0000000), wk =   0.0000000
        k(  187) = (  -0.1111111  -0.1924501   0.0000000), wk =   0.0061728
        k(  188) = (   0.1111111   0.1924501   0.0000000), wk =   0.0000000
        k(  189) = (  -0.1111111   0.1924501   0.0000000), wk =   0.0123457
        k(  190) = (   0.1111111   0.5773503   0.0000000), wk =   0.0000000
        k(  191) = (  -0.2777778  -0.0320750   0.0000000), wk =   0.0123457
        k(  192) = (  -0.0555556   0.3528252   0.0000000), wk =   0.0000000
        k(  193) = (   0.1666667  -0.2245251   0.0000000), wk =   0.0123457
        k(  194) = (   0.3888889   0.1603751   0.0000000), wk =   0.0000000
        k(  195) = (  -0.1111111  -0.2566001   0.0000000), wk =   0.0123457
        k(  196) = (   0.1111111   0.1283001   0.0000000), wk =   0.0000000
        k(  197) = (  -0.1111111   0.2566001   0.0000000), wk =   0.0123457
        k(  198) = (   0.1111111   0.6415003   0.0000000), wk =   0.0000000
        k(  199) = (  -0.1666667   0.2245251   0.0000000), wk =   0.0123457
        k(  200) = (   0.0555556   0.6094253   0.0000000), wk =   0.0000000
        k(  201) = (  -0.3333333  -0.0641500   0.0000000), wk =   0.0123457
        k(  202) = (  -0.1111111   0.3207501   0.0000000), wk =   0.0000000
        k(  203) = (   0.2222222  -0.2566001   0.0000000), wk =   0.0123457
        k(  204) = (   0.4444444   0.1283001   0.0000000), wk =   0.0000000
        k(  205) = (  -0.1111111  -0.3207501   0.0000000), wk =   0.0123457
        k(  206) = (   0.1111111   0.0641500   0.0000000), wk =   0.0000000
        k(  207) = (  -0.1111111   0.3207501   0.0000000), wk =   0.0123457
        k(  208) = (   0.1111111   0.7056503   0.0000000), wk =   0.0000000
        k(  209) = (  -0.2222222   0.2566001   0.0000000), wk =   0.0123457
        k(  210) = (   0.0000000   0.6415003   0.0000000), wk =   0.0000000
        k(  211) = (  -0.3888889  -0.0962250   0.0000000), wk =   0.0123457
        k(  212) = (  -0.1666667   0.2886751   0.0000000), wk =   0.0000000
        k(  213) = (   0.2777778  -0.2886751   0.0000000), wk =   0.0123457
        k(  214) = (   0.5000000   0.0962250   0.0000000), wk =   0.0000000
        k(  215) = (  -0.1111111  -0.3849002   0.0000000), wk =   0.0123457
        k(  216) = (   0.1111111   0.0000000   0.0000000), wk =   0.0000000
        k(  217) = (  -0.1111111   0.3849002   0.0000000), wk =   0.0123457
        k(  218) = (   0.1111111   0.7698004   0.0000000), wk =   0.0000000
        k(  219) = (  -0.2777778   0.2886751   0.0000000), wk =   0.0123457
        k(  220) = (  -0.0555556   0.6735753   0.0000000), wk =   0.0000000
        k(  221) = (  -0.4444444  -0.1283001   0.0000000), wk =   0.0123457
        k(  222) = (  -0.2222222   0.2566001   0.0000000), wk =   0.0000000
        k(  223) = (   0.3333333  -0.3207501   0.0000000), wk =   0.0123457
        k(  224) = (   0.5555556   0.0641500   0.0000000), wk =   0.0000000
        k(  225) = (  -0.1111111  -0.4490502   0.0000000), wk =   0.0123457
        k(  226) = (   0.1111111  -0.0641500   0.0000000), wk =   0.0000000
        k(  227) = (  -0.1111111   0.4490502   0.0000000), wk =   0.0123457
        k(  228) = (   0.1111111   0.8339504   0.0000000), wk =   0.0000000
        k(  229) = (  -0.3333333   0.3207501   0.0000000), wk =   0.0123457
        k(  230) = (  -0.1111111   0.7056503   0.0000000), wk =   0.0000000
        k(  231) = (  -0.5000000  -0.1603751   0.0000000), wk =   0.0123457
        k(  232) = (  -0.2777778   0.2245251   0.0000000), wk =   0.0000000
        k(  233) = (   0.3888889  -0.3528252   0.0000000), wk =   0.0123457
        k(  234) = (   0.6111111   0.0320750   0.0000000), wk =   0.0000000
        k(  235) = (  -0.1111111  -0.5132002   0.0000000), wk =   0.0123457
        k(  236) = (   0.1111111  -0.1283001   0.0000000), wk =   0.0000000
        k(  237) = (  -0.1111111   0.5132002   0.0000000), wk =   0.0123457
        k(  238) = (   0.1111111   0.8981004   0.0000000), wk =   0.0000000
        k(  239) = (  -0.3888889   0.3528252   0.0000000), wk =   0.0123457
        k(  240) = (  -0.1666667   0.7377253   0.0000000), wk =   0.0000000
        k(  241) = (   0.4444444  -0.3849002   0.0000000), wk =   0.0061728
        k(  242) = (   0.6666667   0.0000000   0.0000000), wk =   0.0000000
        k(  243) = (  -0.1111111  -0.5773503   0.0000000), wk =   0.0123457
        k(  244) = (   0.1111111  -0.1924501   0.0000000), wk =   0.0000000
        k(  245) = (  -0.4444444   0.3849002   0.0000000), wk =   0.0061728
        k(  246) = (  -0.2222222   0.7698004   0.0000000), wk =   0.0000000
        k(  247) = (  -0.3333333  -0.0000000   0.0000000), wk =   0.0123457
        k(  248) = (  -0.1111111   0.3849002   0.0000000), wk =   0.0000000
        k(  249) = (  -0.1666667  -0.2886751   0.0000000), wk =   0.0061728
        k(  250) = (   0.0555556   0.0962250   0.0000000), wk =   0.0000000
        k(  251) = (  -0.1666667   0.2886751   0.0000000), wk =   0.0123457
        k(  252) = (   0.0555556   0.6735753   0.0000000), wk =   0.0000000
        k(  253) = (  -0.3888889  -0.0320750   0.0000000), wk =   0.0123457
        k(  254) = (  -0.1666667   0.3528252   0.0000000), wk =   0.0000000
        k(  255) = (   0.2222222  -0.3207501   0.0000000), wk =   0.0123457
        k(  256) = (   0.4444444   0.0641500   0.0000000), wk =   0.0000000
        k(  257) = (  -0.1666667  -0.3528252   0.0000000), wk =   0.0123457
        k(  258) = (   0.0555556   0.0320750   0.0000000), wk =   0.0000000
        k(  259) = (  -0.1666667   0.3528252   0.0000000), wk =   0.0123457
        k(  260) = (   0.0555556   0.7377253   0.0000000), wk =   0.0000000
        k(  261) = (  -0.2222222   0.3207501   0.0000000), wk =   0.0123457
        k(  262) = (  -0.0000000   0.7056503   0.0000000), wk =   0.0000000
        k(  263) = (  -0.4444444  -0.0641500   0.0000000), wk =   0.0123457
        k(  264) = (  -0.2222222   0.3207501   0.0000000), wk =   0.0000000
        k(  265) = (   0.2777778  -0.3528252   0.0000000), wk =   0.0123457
        k(  266) = (   0.5000000   0.0320750   0.0000000), wk =   0.0000000
        k(  267) = (  -0.1666667  -0.4169752   0.0000000), wk =   0.0123457
        k(  268) = (   0.0555556  -0.0320750   0.0000000), wk =   0.0000000
        k(  269) = (  -0.1666667   0.4169752   0.0000000), wk =   0.0123457
        k(  270) = (   0.0555556   0.8018754   0.0000000), wk =   0.0000000
        k(  271) = (  -0.2777778   0.3528252   0.0000000), wk =   0.0123457
        k(  272) = (  -0.0555556   0.7377253   0.0000000), wk =   0.0000000
        k(  273) = (  -0.5000000  -0.0962250   0.0000000), wk =   0.0123457
        k(  274) = (  -0.2777778   0.2886751   0.0000000), wk =   0.0000000
        k(  275) = (   0.3333333  -0.3849002   0.0000000), wk =   0.0123457
        k(  276) = (   0.5555556   0.0000000   0.0000000), wk =   0.0000000
        k(  277) = (  -0.1666667  -0.4811252   0.0000000), wk =   0.0123457
        k(  278) = (   0.0555556  -0.0962250   0.0000000), wk =   0.0000000
        k(  279) = (  -0.1666667   0.4811252   0.0000000), wk =   0.0123457
        k(  280) = (   0.0555556   0.8660254   0.0000000), wk =   0.0000000
        k(  281) = (  -0.3333333   0.3849002   0.0000000), wk =   0.0123457
        k(  282) = (  -0.1111111   0.7698004   0.0000000), wk =   0.0000000
        k(  283) = (  -0.5555556  -0.1283001   0.0000000), wk =   0.0123457
        k(  284) = (  -0.3333333   0.2566001   0.0000000), wk =   0.0000000
        k(  285) = (   0.3888889  -0.4169752   0.0000000), wk =   0.0123457
        k(  286) = (   0.6111111  -0.0320750   0.0000000), wk =   0.0000000
        k(  287) = (  -0.1666667  -0.5452753   0.0000000), wk =   0.0123457
        k(  288) = (   0.0555556  -0.1603751   0.0000000), wk =   0.0000000
        k(  289) = (  -0.1666667   0.5452753   0.0000000), wk =   0.0123457
        k(  290) = (   0.0555556   0.9301754   0.0000000), wk =   0.0000000
        k(  291) = (  -0.3888889   0.4169752   0.0000000), wk =   0.0123457
        k(  292) = (  -0.1666667   0.8018754   0.0000000), wk =   0.0000000
        k(  293) = (  -0.4444444  -0.0000000   0.0000000), wk =   0.0123457
        k(  294) = (  -0.2222222   0.3849002   0.0000000), wk =   0.0000000
        k(  295) = (  -0.2222222  -0.3849002   0.0000000), wk =   0.0061728
        k(  296) = (   0.0000000  -0.0000000   0.0000000), wk =   0.0000000
        k(  297) = (  -0.2222222   0.3849002   0.0000000), wk =   0.0123457
        k(  298) = (   0.0000000   0.7698004   0.0000000), wk =   0.0000000
        k(  299) = (  -0.5000000  -0.0320750   0.0000000), wk =   0.0123457
        k(  300) = (  -0.2777778   0.3528252   0.0000000), wk =   0.0000000
        k(  301) = (   0.2777778  -0.4169752   0.0000000), wk =   0.0123457
        k(  302) = (   0.5000000  -0.0320750   0.0000000), wk =   0.0000000
        k(  303) = (  -0.2222222  -0.4490502   0.0000000), wk =   0.0123457
        k(  304) = (   0.0000000  -0.0641500   0.0000000), wk =   0.0000000
        k(  305) = (  -0.2222222   0.4490502   0.0000000), wk =   0.0123457
        k(  306) = (   0.0000000   0.8339504   0.0000000), wk =   0.0000000
        k(  307) = (  -0.2777778   0.4169752   0.0000000), wk =   0.0123457
        k(  308) = (  -0.0555556   0.8018754   0.0000000), wk =   0.0000000
        k(  309) = (  -0.5555556  -0.0641500   0.0000000), wk =   0.0123457
        k(  310) = (  -0.3333333   0.3207501   0.0000000), wk =   0.0000000
        k(  311) = (   0.3333333  -0.4490502   0.0000000), wk =   0.0123457
        k(  312) = (   0.5555556  -0.0641500   0.0000000), wk =   0.0000000
        k(  313) = (  -0.2222222  -0.5132002   0.0000000), wk =   0.0123457
        k(  314) = (   0.0000000  -0.1283001   0.0000000), wk =   0.0000000
        k(  315) = (  -0.2222222   0.5132002   0.0000000), wk =   0.0123457
        k(  316) = (   0.0000000   0.8981004   0.0000000), wk =   0.0000000
        k(  317) = (  -0.3333333   0.4490502   0.0000000), wk =   0.0123457
        k(  318) = (  -0.1111111   0.8339504   0.0000000), wk =   0.0000000
        k(  319) = (   0.3888889  -0.4811252   0.0000000), wk =   0.0061728
        k(  320) = (   0.6111111  -0.0962250   0.0000000), wk =   0.0000000
        k(  321) = (  -0.2222222  -0.5773503   0.0000000), wk =   0.0123457
        k(  322) = (   0.0000000  -0.1924501   0.0000000), wk =   0.0000000
        k(  323) = (  -0.3888889   0.4811252   0.0000000), wk =   0.0061728
        k(  324) = (  -0.1666667   0.8660254   0.0000000), wk =   0.0000000
        k(  325) = (  -0.5555556  -0.0000000   0.0000000), wk =   0.0123457
        k(  326) = (  -0.3333333   0.3849002   0.0000000), wk =   0.0000000
        k(  327) = (  -0.2777778  -0.4811252   0.0000000), wk =   0.0061728
        k(  328) = (  -0.0555556  -0.0962250   0.0000000), wk =   0.0000000
        k(  329) = (  -0.2777778   0.4811252   0.0000000), wk =   0.0123457
        k(  330) = (  -0.0555556   0.8660254   0.0000000), wk =   0.0000000
        k(  331) = (  -0.6111111  -0.0320750   0.0000000), wk =   0.0123457
        k(  332) = (  -0.3888889   0.3528252   0.0000000), wk =   0.0000000
        k(  333) = (   0.3333333  -0.5132002   0.0000000), wk =   0.0123457
        k(  334) = (   0.5555556  -0.1283001   0.0000000), wk =   0.0000000
        k(  335) = (  -0.2777778  -0.5452753   0.0000000), wk =   0.0123457
        k(  336) = (  -0.0555556  -0.1603751   0.0000000), wk =   0.0000000
        k(  337) = (  -0.2777778   0.5452753   0.0000000), wk =   0.0123457
        k(  338) = (  -0.0555556   0.9301754   0.0000000), wk =   0.0000000
        k(  339) = (  -0.3333333   0.5132002   0.0000000), wk =   0.0123457
        k(  340) = (  -0.1111111   0.8981004   0.0000000), wk =   0.0000000
        k(  341) = (  -0.3333333  -0.5773503   0.0000000), wk =   0.0061728
        k(  342) = (  -0.1111111  -0.1924501   0.0000000), wk =   0.0000000

                       cryst. coord.
        k(    1) = (   0.0000000   0.0000000   0.0000000), wk =   0.0061728
        k(    2) = (   0.2222222   0.2222222   0.0000000), wk =   0.0000000
        k(    3) = (   0.0000000   0.0555556   0.0000000), wk =   0.0123457
        k(    4) = (   0.2222222   0.2777778   0.0000000), wk =   0.0000000
        k(    5) = (   0.0000000   0.1111111   0.0000000), wk =   0.0123457
        k(    6) = (   0.2222222   0.3333333   0.0000000), wk =   0.0000000
        k(    7) = (   0.0000000   0.1666667   0.0000000), wk =   0.0123457
        k(    8) = (   0.2222222   0.3888889   0.0000000), wk =   0.0000000
        k(    9) = (   0.0000000   0.2222222   0.0000000), wk =   0.0123457
        k(   10) = (   0.2222222   0.4444444   0.0000000), wk =   0.0000000
        k(   11) = (   0.0000000   0.2777778   0.0000000), wk =   0.0123457
        k(   12) = (   0.2222222   0.5000000   0.0000000), wk =   0.0000000
        k(   13) = (   0.0000000   0.3333333   0.0000000), wk =   0.0123457
        k(   14) = (   0.2222222   0.5555556   0.0000000), wk =   0.0000000
        k(   15) = (   0.0000000   0.3888889   0.0000000), wk =   0.0123457
        k(   16) = (   0.2222222   0.6111111   0.0000000), wk =   0.0000000
        k(   17) = (   0.0000000   0.4444444   0.0000000), wk =   0.0123457
        k(   18) = (   0.2222222   0.6666667   0.0000000), wk =   0.0000000
        k(   19) = (   0.0000000  -0.5000000   0.0000000), wk =   0.0123457
        k(   20) = (   0.2222222  -0.2777778   0.0000000), wk =   0.0000000
        k(   21) = (   0.0555556   0.0555556   0.0000000), wk =   0.0061728
        k(   22) = (   0.2777778   0.2777778   0.0000000), wk =   0.0000000
        k(   23) = (   0.0555556   0.1111111   0.0000000), wk =   0.0123457
        k(   24) = (   0.2777778   0.3333333   0.0000000), wk =   0.0000000
        k(   25) = (   0.0555556   0.1666667   0.0000000), wk =   0.0123457
        k(   26) = (   0.2777778   0.3888889   0.0000000), wk =   0.0000000
        k(   27) = (   0.0555556   0.2222222   0.0000000), wk =   0.0123457
        k(   28) = (   0.2777778   0.4444444   0.0000000), wk =   0.0000000
        k(   29) = (   0.0555556   0.2777778   0.0000000), wk =   0.0123457
        k(   30) = (   0.2777778   0.5000000   0.0000000), wk =   0.0000000
        k(   31) = (   0.0555556   0.3333333   0.0000000), wk =   0.0123457
        k(   32) = (   0.2777778   0.5555556   0.0000000), wk =   0.0000000
        k(   33) = (   0.0555556   0.3888889   0.0000000), wk =   0.0123457
        k(   34) = (   0.2777778   0.6111111   0.0000000), wk =   0.0000000
        k(   35) = (   0.0555556   0.4444444   0.0000000), wk =   0.0123457
        k(   36) = (   0.2777778   0.6666667   0.0000000), wk =   0.0000000
        k(   37) = (   0.1111111   0.1111111   0.0000000), wk =   0.0061728
        k(   38) = (   0.3333333   0.3333333   0.0000000), wk =   0.0000000
        k(   39) = (   0.1111111   0.1666667   0.0000000), wk =   0.0123457
        k(   40) = (   0.3333333   0.3888889   0.0000000), wk =   0.0000000
        k(   41) = (   0.1111111   0.2222222   0.0000000), wk =   0.0123457
        k(   42) = (   0.3333333   0.4444444   0.0000000), wk =   0.0000000
        k(   43) = (   0.1111111   0.2777778   0.0000000), wk =   0.0123457
        k(   44) = (   0.3333333   0.5000000   0.0000000), wk =   0.0000000
        k(   45) = (   0.1111111   0.3333333   0.0000000), wk =   0.0123457
        k(   46) = (   0.3333333   0.5555556   0.0000000), wk =   0.0000000
        k(   47) = (   0.1111111   0.3888889   0.0000000), wk =   0.0123457
        k(   48) = (   0.3333333   0.6111111   0.0000000), wk =   0.0000000
        k(   49) = (   0.1111111   0.4444444   0.0000000), wk =   0.0123457
        k(   50) = (   0.3333333   0.6666667   0.0000000), wk =   0.0000000
        k(   51) = (   0.1666667   0.1666667   0.0000000), wk =   0.0061728
        k(   52) = (   0.3888889   0.3888889   0.0000000), wk =   0.0000000
        k(   53) = (   0.1666667   0.2222222   0.0000000), wk =   0.0123457
        k(   54) = (   0.3888889   0.4444444   0.0000000), wk =   0.0000000
        k(   55) = (   0.1666667   0.2777778   0.0000000), wk =   0.0123457
        k(   56) = (   0.3888889   0.5000000   0.0000000), wk =   0.0000000
        k(   57) = (   0.1666667   0.3333333   0.0000000), wk =   0.0123457
        k(   58) = (   0.3888889   0.5555556   0.0000000), wk =   0.0000000
        k(   59) = (   0.1666667   0.3888889   0.0000000), wk =   0.0123457
        k(   60) = (   0.3888889   0.6111111   0.0000000), wk =   0.0000000
        k(   61) = (   0.2222222   0.2222222   0.0000000), wk =   0.0061728
        k(   62) = (   0.4444444   0.4444444   0.0000000), wk =   0.0000000
        k(   63) = (   0.2222222   0.2777778   0.0000000), wk =   0.0123457
        k(   64) = (   0.4444444   0.5000000   0.0000000), wk =   0.0000000
        k(   65) = (   0.2222222   0.3333333   0.0000000), wk =   0.0123457
        k(   66) = (   0.4444444   0.5555556   0.0000000), wk =   0.0000000
        k(   67) = (   0.2222222   0.3888889   0.0000000), wk =   0.0123457
        k(   68) = (   0.4444444   0.6111111   0.0000000), wk =   0.0000000
        k(   69) = (   0.2777778   0.2777778   0.0000000), wk =   0.0061728
        k(   70) = (   0.5000000   0.5000000   0.0000000), wk =   0.0000000
        k(   71) = (   0.2777778   0.3333333   0.0000000), wk =   0.0123457
        k(   72) = (   0.5000000   0.5555556   0.0000000), wk =   0.0000000
        k(   73) = (   0.3333333   0.3333333   0.0000000), wk =   0.0061728
        k(   74) = (   0.5555556   0.5555556   0.0000000), wk =   0.0000000
        k(   75) = (  -0.0555556   0.0000000   0.0000000), wk =   0.0123457
        k(   76) = (   0.1666667   0.2222222   0.0000000), wk =   0.0000000
        k(   77) = (   0.0555556  -0.0555556   0.0000000), wk =   0.0123457
        k(   78) = (   0.2777778   0.1666667   0.0000000), wk =   0.0000000
        k(   79) = (  -0.1111111   0.0000000   0.0000000), wk =   0.0123457
        k(   80) = (   0.1111111   0.2222222   0.0000000), wk =   0.0000000
        k(   81) = (   0.1111111  -0.1111111   0.0000000), wk =   0.0123457
        k(   82) = (   0.3333333   0.1111111   0.0000000), wk =   0.0000000
        k(   83) = (  -0.1666667   0.0000000   0.0000000), wk =   0.0123457
        k(   84) = (   0.0555556   0.2222222   0.0000000), wk =   0.0000000
        k(   85) = (   0.1666667  -0.1666667   0.0000000), wk =   0.0123457
        k(   86) = (   0.3888889   0.0555556   0.0000000), wk =   0.0000000
        k(   87) = (  -0.2222222   0.0000000   0.0000000), wk =   0.0123457
        k(   88) = (   0.0000000   0.2222222   0.0000000), wk =   0.0000000
        k(   89) = (   0.2222222  -0.2222222   0.0000000), wk =   0.0123457
        k(   90) = (   0.4444444  -0.0000000   0.0000000), wk =   0.0000000
        k(   91) = (  -0.2777778   0.0000000   0.0000000), wk =   0.0123457
        k(   92) = (  -0.0555556   0.2222222   0.0000000), wk =   0.0000000
        k(   93) = (   0.2777778  -0.2777778   0.0000000), wk =   0.0123457
        k(   94) = (   0.5000000  -0.0555556   0.0000000), wk =   0.0000000
        k(   95) = (  -0.3333333   0.0000000   0.0000000), wk =   0.0123457
        k(   96) = (  -0.1111111   0.2222222   0.0000000), wk =   0.0000000
        k(   97) = (   0.3333333  -0.3333333   0.0000000), wk =   0.0123457
        k(   98) = (   0.5555556  -0.1111111   0.0000000), wk =   0.0000000
        k(   99) = (  -0.3888889  -0.0000000   0.0000000), wk =   0.0123457
        k(  100) = (  -0.1666667   0.2222222   0.0000000), wk =   0.0000000
        k(  101) = (   0.3888889  -0.3888889   0.0000000), wk =   0.0123457
        k(  102) = (   0.6111111  -0.1666667   0.0000000), wk =   0.0000000
        k(  103) = (  -0.4444444   0.0000000   0.0000000), wk =   0.0123457
        k(  104) = (  -0.2222222   0.2222222   0.0000000), wk =   0.0000000
        k(  105) = (   0.4444444  -0.4444444   0.0000000), wk =   0.0123457
        k(  106) = (   0.6666667  -0.2222222   0.0000000), wk =   0.0000000
        k(  107) = (  -0.5000000   0.5000000   0.0000000), wk =   0.0061728
        k(  108) = (  -0.2777778   0.7222222   0.0000000), wk =   0.0000000
        k(  109) = (  -0.1111111   0.0555556   0.0000000), wk =   0.0123457
        k(  110) = (   0.1111111   0.2777778   0.0000000), wk =   0.0000000
        k(  111) = (  -0.0555556  -0.0555556   0.0000000), wk =   0.0061728
        k(  112) = (   0.1666667   0.1666667   0.0000000), wk =   0.0000000
        k(  113) = (  -0.0555556   0.1111111   0.0000000), wk =   0.0123457
        k(  114) = (   0.1666667   0.3333333   0.0000000), wk =   0.0000000
        k(  115) = (  -0.1666667   0.0555556   0.0000000), wk =   0.0123457
        k(  116) = (   0.0555556   0.2777778   0.0000000), wk =   0.0000000
        k(  117) = (   0.1111111  -0.1666667   0.0000000), wk =   0.0123457
        k(  118) = (   0.3333333   0.0555556   0.0000000), wk =   0.0000000
        k(  119) = (  -0.0555556  -0.1111111   0.0000000), wk =   0.0123457
        k(  120) = (   0.1666667   0.1111111   0.0000000), wk =   0.0000000
        k(  121) = (  -0.0555556   0.1666667   0.0000000), wk =   0.0123457
        k(  122) = (   0.1666667   0.3888889   0.0000000), wk =   0.0000000
        k(  123) = (  -0.1111111   0.1666667   0.0000000), wk =   0.0123457
        k(  124) = (   0.1111111   0.3888889   0.0000000), wk =   0.0000000
        k(  125) = (  -0.2222222   0.0555556   0.0000000), wk =   0.0123457
        k(  126) = (   0.0000000   0.2777778   0.0000000), wk =   0.0000000
        k(  127) = (   0.1666667  -0.2222222   0.0000000), wk =   0.0123457
        k(  128) = (   0.3888889  -0.0000000   0.0000000), wk =   0.0000000
        k(  129) = (  -0.0555556  -0.1666667   0.0000000), wk =   0.0123457
        k(  130) = (   0.1666667   0.0555556   0.0000000), wk =   0.0000000
        k(  131) = (  -0.0555556   0.2222222   0.0000000), wk =   0.0123457
        k(  132) = (   0.1666667   0.4444444   0.0000000), wk =   0.0000000
        k(  133) = (  -0.1666667   0.2222222   0.0000000), wk =   0.0123457
        k(  134) = (   0.0555556   0.4444444   0.0000000), wk =   0.0000000
        k(  135) = (  -0.2777778   0.0555556   0.0000000), wk =   0.0123457
        k(  136) = (  -0.0555556   0.2777778   0.0000000), wk =   0.0000000
        k(  137) = (   0.2222222  -0.2777778   0.0000000), wk =   0.0123457
        k(  138) = (   0.4444444  -0.0555556   0.0000000), wk =   0.0000000
        k(  139) = (  -0.0555556  -0.2222222   0.0000000), wk =   0.0123457
        k(  140) = (   0.1666667  -0.0000000   0.0000000), wk =   0.0000000
        k(  141) = (  -0.0555556   0.2777778   0.0000000), wk =   0.0123457
        k(  142) = (   0.1666667   0.5000000   0.0000000), wk =   0.0000000
        k(  143) = (  -0.2222222   0.2777778   0.0000000), wk =   0.0123457
        k(  144) = (   0.0000000   0.5000000   0.0000000), wk =   0.0000000
        k(  145) = (  -0.3333333   0.0555556   0.0000000), wk =   0.0123457
        k(  146) = (  -0.1111111   0.2777778   0.0000000), wk =   0.0000000
        k(  147) = (   0.2777778  -0.3333333   0.0000000), wk =   0.0123457
        k(  148) = (   0.5000000  -0.1111111   0.0000000), wk =   0.0000000
        k(  149) = (  -0.0555556  -0.2777778   0.0000000), wk =   0.0123457
        k(  150) = (   0.1666667  -0.0555556   0.0000000), wk =   0.0000000
        k(  151) = (  -0.0555556   0.3333333   0.0000000), wk =   0.0123457
        k(  152) = (   0.1666667   0.5555556   0.0000000), wk =   0.0000000
        k(  153) = (  -0.2777778   0.3333333   0.0000000), wk =   0.0123457
        k(  154) = (  -0.0555556   0.5555556   0.0000000), wk =   0.0000000
        k(  155) = (  -0.3888889   0.0555556   0.0000000), wk =   0.0123457
        k(  156) = (  -0.1666667   0.2777778   0.0000000), wk =   0.0000000
        k(  157) = (   0.3333333  -0.3888889   0.0000000), wk =   0.0123457
        k(  158) = (   0.5555556  -0.1666667   0.0000000), wk =   0.0000000
        k(  159) = (  -0.0555556  -0.3333333   0.0000000), wk =   0.0123457
        k(  160) = (   0.1666667  -0.1111111   0.0000000), wk =   0.0000000
        k(  161) = (  -0.0555556   0.3888889   0.0000000), wk =   0.0123457
        k(  162) = (   0.1666667   0.6111111   0.0000000), wk =   0.0000000
        k(  163) = (  -0.3333333   0.3888889   0.0000000), wk =   0.0123457
        k(  164) = (  -0.1111111   0.6111111   0.0000000), wk =   0.0000000
        k(  165) = (  -0.4444444   0.0555556   0.0000000), wk =   0.0123457
        k(  166) = (  -0.2222222   0.2777778   0.0000000), wk =   0.0000000
        k(  167) = (   0.3888889  -0.4444444   0.0000000), wk =   0.0123457
        k(  168) = (   0.6111111  -0.2222222   0.0000000), wk =   0.0000000
        k(  169) = (  -0.0555556  -0.3888889   0.0000000), wk =   0.0123457
        k(  170) = (   0.1666667  -0.1666667   0.0000000), wk =   0.0000000
        k(  171) = (  -0.0555556   0.4444444   0.0000000), wk =   0.0123457
        k(  172) = (   0.1666667   0.6666667   0.0000000), wk =   0.0000000
        k(  173) = (  -0.3888889   0.4444444   0.0000000), wk =   0.0123457
        k(  174) = (  -0.1666667   0.6666667   0.0000000), wk =   0.0000000
        k(  175) = (  -0.5000000   0.0555556   0.0000000), wk =   0.0123457
        k(  176) = (  -0.2777778   0.2777778   0.0000000), wk =   0.0000000
        k(  177) = (   0.4444444  -0.5000000   0.0000000), wk =   0.0123457
        k(  178) = (   0.6666667  -0.2777778   0.0000000), wk =   0.0000000
        k(  179) = (  -0.0555556  -0.4444444   0.0000000), wk =   0.0123457
        k(  180) = (   0.1666667  -0.2222222   0.0000000), wk =   0.0000000
        k(  181) = (  -0.0555556   0.5000000   0.0000000), wk =   0.0123457
        k(  182) = (   0.1666667   0.7222222   0.0000000), wk =   0.0000000
        k(  183) = (  -0.4444444   0.5000000   0.0000000), wk =   0.0123457
        k(  184) = (  -0.2222222   0.7222222   0.0000000), wk =   0.0000000
        k(  185) = (  -0.2222222   0.1111111   0.0000000), wk =   0.0123457
        k(  186) = (   0.0000000   0.3333333   0.0000000), wk =   0.0000000
        k(  187) = (  -0.1111111  -0.1111111   0.0000000), wk =   0.0061728
        k(  188) = (   0.1111111   0.1111111   0.0000000), wk =   0.0000000
        k(  189) = (  -0.1111111   0.2222222   0.0000000), wk =   0.0123457
        k(  190) = (   0.1111111   0.4444444   0.0000000), wk =   0.0000000
        k(  191) = (  -0.2777778   0.1111111   0.0000000), wk =   0.0123457
        k(  192) = (  -0.0555556   0.3333333   0.0000000), wk =   0.0000000
        k(  193) = (   0.1666667  -0.2777778   0.0000000), wk =   0.0123457
        k(  194) = (   0.3888889  -0.0555556   0.0000000), wk =   0.0000000
        k(  195) = (  -0.1111111  -0.1666667   0.0000000), wk =   0.0123457
        k(  196) = (   0.1111111   0.0555556   0.0000000), wk =   0.0000000
        k(  197) = (  -0.1111111   0.2777778   0.0000000), wk =   0.0123457
        k(  198) = (   0.1111111   0.5000000   0.0000000), wk =   0.0000000
        k(  199) = (  -0.1666667   0.2777778   0.0000000), wk =   0.0123457
        k(  200) = (   0.0555556   0.5000000   0.0000000), wk =   0.0000000
        k(  201) = (  -0.3333333   0.1111111   0.0000000), wk =   0.0123457
        k(  202) = (  -0.1111111   0.3333333   0.0000000), wk =   0.0000000
        k(  203) = (   0.2222222  -0.3333333   0.0000000), wk =   0.0123457
        k(  204) = (   0.4444444  -0.1111111   0.0000000), wk =   0.0000000
        k(  205) = (  -0.1111111  -0.2222222   0.0000000), wk =   0.0123457
        k(  206) = (   0.1111111  -0.0000000   0.0000000), wk =   0.0000000
        k(  207) = (  -0.1111111   0.3333333   0.0000000), wk =   0.0123457
        k(  208) = (   0.1111111   0.5555556   0.0000000), wk =   0.0000000
        k(  209) = (  -0.2222222   0.3333333   0.0000000), wk =   0.0123457
        k(  210) = (   0.0000000   0.5555556   0.0000000), wk =   0.0000000
        k(  211) = (  -0.3888889   0.1111111   0.0000000), wk =   0.0123457
        k(  212) = (  -0.1666667   0.3333333   0.0000000), wk =   0.0000000
        k(  213) = (   0.2777778  -0.3888889   0.0000000), wk =   0.0123457
        k(  214) = (   0.5000000  -0.1666667   0.0000000), wk =   0.0000000
        k(  215) = (  -0.1111111  -0.2777778   0.0000000), wk =   0.0123457
        k(  216) = (   0.1111111  -0.0555556   0.0000000), wk =   0.0000000
        k(  217) = (  -0.1111111   0.3888889   0.0000000), wk =   0.0123457
        k(  218) = (   0.1111111   0.6111111   0.0000000), wk =   0.0000000
        k(  219) = (  -0.2777778   0.3888889   0.0000000), wk =   0.0123457
        k(  220) = (  -0.0555556   0.6111111   0.0000000), wk =   0.0000000
        k(  221) = (  -0.4444444   0.1111111   0.0000000), wk =   0.0123457
        k(  222) = (  -0.2222222   0.3333333   0.0000000), wk =   0.0000000
        k(  223) = (   0.3333333  -0.4444444   0.0000000), wk =   0.0123457
        k(  224) = (   0.5555556  -0.2222222   0.0000000), wk =   0.0000000
        k(  225) = (  -0.1111111  -0.3333333   0.0000000), wk =   0.0123457
        k(  226) = (   0.1111111  -0.1111111   0.0000000), wk =   0.0000000
        k(  227) = (  -0.1111111   0.4444444   0.0000000), wk =   0.0123457
        k(  228) = (   0.1111111   0.6666667   0.0000000), wk =   0.0000000
        k(  229) = (  -0.3333333   0.4444444   0.0000000), wk =   0.0123457
        k(  230) = (  -0.1111111   0.6666667   0.0000000), wk =   0.0000000
        k(  231) = (  -0.5000000   0.1111111   0.0000000), wk =   0.0123457
        k(  232) = (  -0.2777778   0.3333333   0.0000000), wk =   0.0000000
        k(  233) = (   0.3888889  -0.5000000   0.0000000), wk =   0.0123457
        k(  234) = (   0.6111111  -0.2777778   0.0000000), wk =   0.0000000
        k(  235) = (  -0.1111111  -0.3888889   0.0000000), wk =   0.0123457
        k(  236) = (   0.1111111  -0.1666667   0.0000000), wk =   0.0000000
        k(  237) = (  -0.1111111   0.5000000   0.0000000), wk =   0.0123457
        k(  238) = (   0.1111111   0.7222222   0.0000000), wk =   0.0000000
        k(  239) = (  -0.3888889   0.5000000   0.0000000), wk =   0.0123457
        k(  240) = (  -0.1666667   0.7222222   0.0000000), wk =   0.0000000
        k(  241) = (   0.4444444  -0.5555556   0.0000000), wk =   0.0061728
        k(  242) = (   0.6666667  -0.3333333   0.0000000), wk =   0.0000000
        k(  243) = (  -0.1111111  -0.4444444   0.0000000), wk =   0.0123457
        k(  244) = (   0.1111111  -0.2222222   0.0000000), wk =   0.0000000
        k(  245) = (  -0.4444444   0.5555556   0.0000000), wk =   0.0061728
        k(  246) = (  -0.2222222   0.7777778   0.0000000), wk =   0.0000000
        k(  247) = (  -0.3333333   0.1666667   0.0000000), wk =   0.0123457
        k(  248) = (  -0.1111111   0.3888889   0.0000000), wk =   0.0000000
        k(  249) = (  -0.1666667  -0.1666667   0.0000000), wk =   0.0061728
        k(  250) = (   0.0555556   0.0555556   0.0000000), wk =   0.0000000
        k(  251) = (  -0.1666667   0.3333333   0.0000000), wk =   0.0123457
        k(  252) = (   0.0555556   0.5555556   0.0000000), wk =   0.0000000
        k(  253) = (  -0.3888889   0.1666667   0.0000000), wk =   0.0123457
        k(  254) = (  -0.1666667   0.3888889   0.0000000), wk =   0.0000000
        k(  255) = (   0.2222222  -0.3888889   0.0000000), wk =   0.0123457
        k(  256) = (   0.4444444  -0.1666667   0.0000000), wk =   0.0000000
        k(  257) = (  -0.1666667  -0.2222222   0.0000000), wk =   0.0123457
        k(  258) = (   0.0555556  -0.0000000   0.0000000), wk =   0.0000000
        k(  259) = (  -0.1666667   0.3888889   0.0000000), wk =   0.0123457
        k(  260) = (   0.0555556   0.6111111   0.0000000), wk =   0.0000000
        k(  261) = (  -0.2222222   0.3888889   0.0000000), wk =   0.0123457
        k(  262) = (  -0.0000000   0.6111111   0.0000000), wk =   0.0000000
        k(  263) = (  -0.4444444   0.1666667   0.0000000), wk =   0.0123457
        k(  264) = (  -0.2222222   0.3888889   0.0000000), wk =   0.0000000
        k(  265) = (   0.2777778  -0.4444444   0.0000000), wk =   0.0123457
        k(  266) = (   0.5000000  -0.2222222   0.0000000), wk =   0.0000000
        k(  267) = (  -0.1666667  -0.2777778   0.0000000), wk =   0.0123457
        k(  268) = (   0.0555556  -0.0555556   0.0000000), wk =   0.0000000
        k(  269) = (  -0.1666667   0.4444444   0.0000000), wk =   0.0123457
        k(  270) = (   0.0555556   0.6666667   0.0000000), wk =   0.0000000
        k(  271) = (  -0.2777778   0.4444444   0.0000000), wk =   0.0123457
        k(  272) = (  -0.0555556   0.6666667   0.0000000), wk =   0.0000000
        k(  273) = (  -0.5000000   0.1666667   0.0000000), wk =   0.0123457
        k(  274) = (  -0.2777778   0.3888889   0.0000000), wk =   0.0000000
        k(  275) = (   0.3333333  -0.5000000   0.0000000), wk =   0.0123457
        k(  276) = (   0.5555556  -0.2777778   0.0000000), wk =   0.0000000
        k(  277) = (  -0.1666667  -0.3333333   0.0000000), wk =   0.0123457
        k(  278) = (   0.0555556  -0.1111111   0.0000000), wk =   0.0000000
        k(  279) = (  -0.1666667   0.5000000   0.0000000), wk =   0.0123457
        k(  280) = (   0.0555556   0.7222222   0.0000000), wk =   0.0000000
        k(  281) = (  -0.3333333   0.5000000   0.0000000), wk =   0.0123457
        k(  282) = (  -0.1111111   0.7222222   0.0000000), wk =   0.0000000
        k(  283) = (  -0.5555556   0.1666667   0.0000000), wk =   0.0123457
        k(  284) = (  -0.3333333   0.3888889   0.0000000), wk =   0.0000000
        k(  285) = (   0.3888889  -0.5555556   0.0000000), wk =   0.0123457
        k(  286) = (   0.6111111  -0.3333333   0.0000000), wk =   0.0000000
        k(  287) = (  -0.1666667  -0.3888889   0.0000000), wk =   0.0123457
        k(  288) = (   0.0555556  -0.1666667   0.0000000), wk =   0.0000000
        k(  289) = (  -0.1666667   0.5555556   0.0000000), wk =   0.0123457
        k(  290) = (   0.0555556   0.7777778   0.0000000), wk =   0.0000000
        k(  291) = (  -0.3888889   0.5555556   0.0000000), wk =   0.0123457
        k(  292) = (  -0.1666667   0.7777778   0.0000000), wk =   0.0000000
        k(  293) = (  -0.4444444   0.2222222   0.0000000), wk =   0.0123457
        k(  294) = (  -0.2222222   0.4444444   0.0000000), wk =   0.0000000
        k(  295) = (  -0.2222222  -0.2222222   0.0000000), wk =   0.0061728
        k(  296) = (   0.0000000  -0.0000000   0.0000000), wk =   0.0000000
        k(  297) = (  -0.2222222   0.4444444   0.0000000), wk =   0.0123457
        k(  298) = (   0.0000000   0.6666667   0.0000000), wk =   0.0000000
        k(  299) = (  -0.5000000   0.2222222   0.0000000), wk =   0.0123457
        k(  300) = (  -0.2777778   0.4444444   0.0000000), wk =   0.0000000
        k(  301) = (   0.2777778  -0.5000000   0.0000000), wk =   0.0123457
        k(  302) = (   0.5000000  -0.2777778   0.0000000), wk =   0.0000000
        k(  303) = (  -0.2222222  -0.2777778   0.0000000), wk =   0.0123457
        k(  304) = (   0.0000000  -0.0555556   0.0000000), wk =   0.0000000
        k(  305) = (  -0.2222222   0.5000000   0.0000000), wk =   0.0123457
        k(  306) = (   0.0000000   0.7222222   0.0000000), wk =   0.0000000
        k(  307) = (  -0.2777778   0.5000000   0.0000000), wk =   0.0123457
        k(  308) = (  -0.0555556   0.7222222   0.0000000), wk =   0.0000000
        k(  309) = (  -0.5555556   0.2222222   0.0000000), wk =   0.0123457
        k(  310) = (  -0.3333333   0.4444444   0.0000000), wk =   0.0000000
        k(  311) = (   0.3333333  -0.5555556   0.0000000), wk =   0.0123457
        k(  312) = (   0.5555556  -0.3333333   0.0000000), wk =   0.0000000
        k(  313) = (  -0.2222222  -0.3333333   0.0000000), wk =   0.0123457
        k(  314) = (   0.0000000  -0.1111111   0.0000000), wk =   0.0000000
        k(  315) = (  -0.2222222   0.5555556   0.0000000), wk =   0.0123457
        k(  316) = (   0.0000000   0.7777778   0.0000000), wk =   0.0000000
        k(  317) = (  -0.3333333   0.5555556   0.0000000), wk =   0.0123457
        k(  318) = (  -0.1111111   0.7777778   0.0000000), wk =   0.0000000
        k(  319) = (   0.3888889  -0.6111111   0.0000000), wk =   0.0061728
        k(  320) = (   0.6111111  -0.3888889   0.0000000), wk =   0.0000000
        k(  321) = (  -0.2222222  -0.3888889   0.0000000), wk =   0.0123457
        k(  322) = (   0.0000000  -0.1666667   0.0000000), wk =   0.0000000
        k(  323) = (  -0.3888889   0.6111111   0.0000000), wk =   0.0061728
        k(  324) = (  -0.1666667   0.8333333   0.0000000), wk =   0.0000000
        k(  325) = (  -0.5555556   0.2777778   0.0000000), wk =   0.0123457
        k(  326) = (  -0.3333333   0.5000000   0.0000000), wk =   0.0000000
        k(  327) = (  -0.2777778  -0.2777778   0.0000000), wk =   0.0061728
        k(  328) = (  -0.0555556  -0.0555556   0.0000000), wk =   0.0000000
        k(  329) = (  -0.2777778   0.5555556   0.0000000), wk =   0.0123457
        k(  330) = (  -0.0555556   0.7777778   0.0000000), wk =   0.0000000
        k(  331) = (  -0.6111111   0.2777778   0.0000000), wk =   0.0123457
        k(  332) = (  -0.3888889   0.5000000   0.0000000), wk =   0.0000000
        k(  333) = (   0.3333333  -0.6111111   0.0000000), wk =   0.0123457
        k(  334) = (   0.5555556  -0.3888889   0.0000000), wk =   0.0000000
        k(  335) = (  -0.2777778  -0.3333333   0.0000000), wk =   0.0123457
        k(  336) = (  -0.0555556  -0.1111111   0.0000000), wk =   0.0000000
        k(  337) = (  -0.2777778   0.6111111   0.0000000), wk =   0.0123457
        k(  338) = (  -0.0555556   0.8333333   0.0000000), wk =   0.0000000
        k(  339) = (  -0.3333333   0.6111111   0.0000000), wk =   0.0123457
        k(  340) = (  -0.1111111   0.8333333   0.0000000), wk =   0.0000000
        k(  341) = (  -0.3333333  -0.3333333   0.0000000), wk =   0.0061728
        k(  342) = (  -0.1111111  -0.1111111   0.0000000), wk =   0.0000000

     Dense  grid:  1108055 G-vectors     FFT dimensions: (  72,  72, 500)

     Dynamical RAM for                 wfc:       3.96 MB

     Dynamical RAM for     wfc (w. buffer):       3.96 MB

     Dynamical RAM for           str. fact:       4.23 MB

     Dynamical RAM for           local pot:       0.53 MB

     Dynamical RAM for          nlocal pot:       8.46 MB

     Dynamical RAM for                qrad:       2.28 MB

     Dynamical RAM for          rho,v,vnew:      13.82 MB

     Dynamical RAM for           G-vectors:       8.98 MB

     Dynamical RAM for          h,s,v(r/c):       0.16 MB

     Dynamical RAM for          <psi|beta>:       0.01 MB

     Dynamical RAM for                 psi:      15.86 MB

     Dynamical RAM for                hpsi:      15.86 MB

     Dynamical RAM for                spsi:      15.86 MB

     Dynamical RAM for      wfcinit/wfcrot:       8.46 MB

     Dynamical RAM for           addusdens:      95.10 MB

     Estimated static dynamical RAM per process >      61.06 MB

     Estimated max dynamical RAM per process >     156.16 MB

     Estimated total dynamical RAM >       1.22 GB
 ----2D----2D----2D----2D----2D----2D----2D----2D----2D----2D----2D----2D
  The code is running with the 2D cutoff
  Please refer to:
  Sohier, T., Calandra, M., & Mauri, F. (2017), 
  Density functional perturbation theory for gated two-dimensional heterostructures:
  Theoretical developments and application to flexural phonons in graphene.
  Physical Review B, 96(7), 75448. https://doi.org/10.1103/PhysRevB.96.075448
 ----2D----2D----2D----2D----2D----2D----2D----2D----2D----2D----2D----2D

     The potential is recalculated from file :
     /home/ext_chineason_graduate_utm_my/fgc/tmp/10.9/_ph0/fgc.save/charge-density


     negative rho (up, down):  5.457E-06 0.000E+00
     Starting wfcs are   16 atomic wfcs

     Band Structure Calculation
     Davidson diagonalization with overlap

     Computing kpt #:     1
     total cpu time spent up to now is       10.8 secs

     Computing kpt #:     2
     total cpu time spent up to now is       21.1 secs

     Computing kpt #:     3
     total cpu time spent up to now is       37.5 secs

     Computing kpt #:     4
     total cpu time spent up to now is       53.3 secs

     Computing kpt #:     5
     total cpu time spent up to now is       69.8 secs

     Computing kpt #:     6
     total cpu time spent up to now is       82.3 secs

     Computing kpt #:     7
     total cpu time spent up to now is       91.6 secs

     Computing kpt #:     8
     total cpu time spent up to now is      102.8 secs

     Computing kpt #:     9
     total cpu time spent up to now is      114.9 secs

     Computing kpt #:    10
     total cpu time spent up to now is      126.2 secs

     Computing kpt #:    11
     total cpu time spent up to now is      139.0 secs

     Computing kpt #:    12
     total cpu time spent up to now is      151.2 secs

     Computing kpt #:    13
     total cpu time spent up to now is      164.6 secs

     Computing kpt #:    14
     total cpu time spent up to now is      178.9 secs

     Computing kpt #:    15
     total cpu time spent up to now is      189.4 secs

     Computing kpt #:    16
     total cpu time spent up to now is      204.4 secs

     Computing kpt #:    17
     total cpu time spent up to now is      213.5 secs

     Computing kpt #:    18
     total cpu time spent up to now is      232.6 secs

     Computing kpt #:    19
     total cpu time spent up to now is      240.2 secs

     Computing kpt #:    20
     total cpu time spent up to now is      256.3 secs

     Computing kpt #:    21
     total cpu time spent up to now is      282.3 secs

     Computing kpt #:    22
     total cpu time spent up to now is      297.1 secs

     Computing kpt #:    23
     total cpu time spent up to now is      312.1 secs

     Computing kpt #:    24
     total cpu time spent up to now is      327.9 secs

     Computing kpt #:    25
     total cpu time spent up to now is      344.7 secs

     Computing kpt #:    26
     total cpu time spent up to now is      355.1 secs

     Computing kpt #:    27
     total cpu time spent up to now is      370.9 secs

     Computing kpt #:    28
     total cpu time spent up to now is      386.2 secs

     Computing kpt #:    29
     total cpu time spent up to now is      405.9 secs

     Computing kpt #:    30
     total cpu time spent up to now is      418.7 secs

     Computing kpt #:    31
     total cpu time spent up to now is      440.5 secs

     Computing kpt #:    32
     total cpu time spent up to now is      453.3 secs

     Computing kpt #:    33
     total cpu time spent up to now is      469.4 secs

     Computing kpt #:    34
     total cpu time spent up to now is      488.5 secs

     Computing kpt #:    35
     total cpu time spent up to now is      505.7 secs

     Computing kpt #:    36
     total cpu time spent up to now is      524.0 secs

     Computing kpt #:    37
     total cpu time spent up to now is      537.5 secs

     Computing kpt #:    38
     total cpu time spent up to now is      546.9 secs

     Computing kpt #:    39
     total cpu time spent up to now is      557.5 secs

     Computing kpt #:    40
     total cpu time spent up to now is      570.0 secs

     Computing kpt #:    41
     total cpu time spent up to now is      584.1 secs

     Computing kpt #:    42
     total cpu time spent up to now is      598.7 secs

     Computing kpt #:    43
     total cpu time spent up to now is      618.9 secs

     Computing kpt #:    44
     total cpu time spent up to now is      634.3 secs

     Computing kpt #:    45
     total cpu time spent up to now is      650.6 secs

     Computing kpt #:    46
     total cpu time spent up to now is      668.1 secs

     Computing kpt #:    47
     total cpu time spent up to now is      682.3 secs

     Computing kpt #:    48
     total cpu time spent up to now is      701.4 secs

     Computing kpt #:    49
     total cpu time spent up to now is      715.9 secs

     Computing kpt #:    50
     total cpu time spent up to now is      733.6 secs

     Computing kpt #:    51
     total cpu time spent up to now is      750.2 secs

     Computing kpt #:    52
     total cpu time spent up to now is      764.4 secs

     Computing kpt #:    53
     total cpu time spent up to now is      779.0 secs

     Computing kpt #:    54
     total cpu time spent up to now is      793.6 secs

     Computing kpt #:    55
     total cpu time spent up to now is      807.8 secs

     Computing kpt #:    56
     total cpu time spent up to now is      823.5 secs

     Computing kpt #:    57
     total cpu time spent up to now is      837.2 secs

     Computing kpt #:    58
     total cpu time spent up to now is      857.2 secs

     Computing kpt #:    59
     total cpu time spent up to now is      872.3 secs

     Computing kpt #:    60
     total cpu time spent up to now is      882.2 secs

     Computing kpt #:    61
     total cpu time spent up to now is      896.9 secs

     Computing kpt #:    62
     total cpu time spent up to now is      911.4 secs

     Computing kpt #:    63
     total cpu time spent up to now is      928.7 secs

     Computing kpt #:    64
     total cpu time spent up to now is      945.8 secs

     Computing kpt #:    65
     total cpu time spent up to now is      961.7 secs

     Computing kpt #:    66
     total cpu time spent up to now is      971.5 secs

     Computing kpt #:    67
     total cpu time spent up to now is      986.6 secs

     Computing kpt #:    68
     total cpu time spent up to now is     1006.5 secs

     Computing kpt #:    69
     total cpu time spent up to now is     1019.3 secs

     Computing kpt #:    70
     total cpu time spent up to now is     1029.1 secs

     Computing kpt #:    71
     total cpu time spent up to now is     1043.4 secs

     Computing kpt #:    72
     total cpu time spent up to now is     1059.5 secs

     Computing kpt #:    73
     total cpu time spent up to now is     1071.5 secs

     Computing kpt #:    74
     total cpu time spent up to now is     1084.6 secs

     Computing kpt #:    75
     total cpu time spent up to now is     1102.6 secs

     Computing kpt #:    76
     total cpu time spent up to now is     1119.0 secs

     Computing kpt #:    77
     total cpu time spent up to now is     1136.9 secs

     Computing kpt #:    78
     total cpu time spent up to now is     1150.0 secs

     Computing kpt #:    79
     total cpu time spent up to now is     1171.7 secs

     Computing kpt #:    80
     total cpu time spent up to now is     1190.6 secs

     Computing kpt #:    81
     total cpu time spent up to now is     1212.4 secs

     Computing kpt #:    82
     total cpu time spent up to now is     1231.1 secs

     Computing kpt #:    83
     total cpu time spent up to now is     1243.9 secs

     Computing kpt #:    84
     total cpu time spent up to now is     1262.3 secs

     Computing kpt #:    85
     total cpu time spent up to now is     1275.2 secs

     Computing kpt #:    86
     total cpu time spent up to now is     1294.5 secs

     Computing kpt #:    87
     total cpu time spent up to now is     1310.0 secs

     Computing kpt #:    88
     total cpu time spent up to now is     1327.0 secs

     Computing kpt #:    89
     total cpu time spent up to now is     1343.5 secs

     Computing kpt #:    90
     total cpu time spent up to now is     1368.2 secs

     Computing kpt #:    91
     total cpu time spent up to now is     1386.2 secs

     Computing kpt #:    92
     total cpu time spent up to now is     1401.6 secs

     Computing kpt #:    93
     total cpu time spent up to now is     1417.3 secs

     Computing kpt #:    94
     total cpu time spent up to now is     1431.2 secs

     Computing kpt #:    95
     total cpu time spent up to now is     1444.6 secs

     Computing kpt #:    96
     total cpu time spent up to now is     1456.5 secs

     Computing kpt #:    97
     total cpu time spent up to now is     1469.7 secs

     Computing kpt #:    98
     total cpu time spent up to now is     1480.3 secs

     Computing kpt #:    99
     total cpu time spent up to now is     1487.7 secs

     Computing kpt #:   100
     total cpu time spent up to now is     1502.6 secs

     Computing kpt #:   101
     total cpu time spent up to now is     1509.2 secs

     Computing kpt #:   102
     total cpu time spent up to now is     1521.2 secs

     Computing kpt #:   103
     total cpu time spent up to now is     1529.8 secs

     Computing kpt #:   104
     total cpu time spent up to now is     1543.2 secs

     Computing kpt #:   105
     total cpu time spent up to now is     1550.1 secs

     Computing kpt #:   106
     total cpu time spent up to now is     1564.8 secs

     Computing kpt #:   107
     total cpu time spent up to now is     1572.2 secs

     Computing kpt #:   108
     total cpu time spent up to now is     1583.2 secs

     Computing kpt #:   109
     total cpu time spent up to now is     1601.7 secs

     Computing kpt #:   110
     total cpu time spent up to now is     1616.3 secs

     Computing kpt #:   111
     total cpu time spent up to now is     1635.0 secs

     Computing kpt #:   112
     total cpu time spent up to now is     1648.0 secs

     Computing kpt #:   113
     total cpu time spent up to now is     1668.8 secs

     Computing kpt #:   114
     total cpu time spent up to now is     1680.8 secs

     Computing kpt #:   115
     total cpu time spent up to now is     1691.0 secs

     Computing kpt #:   116
     total cpu time spent up to now is     1704.7 secs

     Computing kpt #:   117
     total cpu time spent up to now is     1714.9 secs

     Computing kpt #:   118
     total cpu time spent up to now is     1731.2 secs

     Computing kpt #:   119
     total cpu time spent up to now is     1741.0 secs

     Computing kpt #:   120
     total cpu time spent up to now is     1751.6 secs

     Computing kpt #:   121
     total cpu time spent up to now is     1761.1 secs

     Computing kpt #:   122
     total cpu time spent up to now is     1772.4 secs

     Computing kpt #:   123
     total cpu time spent up to now is     1781.9 secs

     Computing kpt #:   124
     total cpu time spent up to now is     1793.7 secs

     Computing kpt #:   125
     total cpu time spent up to now is     1806.0 secs

     Computing kpt #:   126
     total cpu time spent up to now is     1820.3 secs

     Computing kpt #:   127
     total cpu time spent up to now is     1833.6 secs

     Computing kpt #:   128
     total cpu time spent up to now is     1840.7 secs

     Computing kpt #:   129
     total cpu time spent up to now is     1852.1 secs

     Computing kpt #:   130
     total cpu time spent up to now is     1864.9 secs

     Computing kpt #:   131
     total cpu time spent up to now is     1877.3 secs

     Computing kpt #:   132
     total cpu time spent up to now is     1889.9 secs

     Computing kpt #:   133
     total cpu time spent up to now is     1902.4 secs

     Computing kpt #:   134
     total cpu time spent up to now is     1915.4 secs

     Computing kpt #:   135
     total cpu time spent up to now is     1930.4 secs

     Computing kpt #:   136
     total cpu time spent up to now is     1945.0 secs

     Computing kpt #:   137
     total cpu time spent up to now is     1958.8 secs

     Computing kpt #:   138
     total cpu time spent up to now is     1974.0 secs

     Computing kpt #:   139
     total cpu time spent up to now is     1988.4 secs

     Computing kpt #:   140
     total cpu time spent up to now is     1997.8 secs

     Computing kpt #:   141
     total cpu time spent up to now is     2014.5 secs

     Computing kpt #:   142
     total cpu time spent up to now is     2025.7 secs

     Computing kpt #:   143
     total cpu time spent up to now is     2039.9 secs

     Computing kpt #:   144
     total cpu time spent up to now is     2047.1 secs

     Computing kpt #:   145
     total cpu time spent up to now is     2060.9 secs

     Computing kpt #:   146
     total cpu time spent up to now is     2072.8 secs

     Computing kpt #:   147
[...]
        k(  305) = (  -0.2222222   0.5000000   0.0000000), wk =   0.0123457
        k(  306) = (   0.0000000   0.7222222   0.0000000), wk =   0.0000000
        k(  307) = (  -0.2777778   0.5000000   0.0000000), wk =   0.0123457
        k(  308) = (  -0.0555556   0.7222222   0.0000000), wk =   0.0000000
        k(  309) = (  -0.5555556   0.2222222   0.0000000), wk =   0.0123457
        k(  310) = (  -0.3333333   0.4444444   0.0000000), wk =   0.0000000
        k(  311) = (   0.3333333  -0.5555556   0.0000000), wk =   0.0123457
        k(  312) = (   0.5555556  -0.3333333   0.0000000), wk =   0.0000000
        k(  313) = (  -0.2222222  -0.3333333   0.0000000), wk =   0.0123457
        k(  314) = (   0.0000000  -0.1111111   0.0000000), wk =   0.0000000
        k(  315) = (  -0.2222222   0.5555556   0.0000000), wk =   0.0123457
        k(  316) = (   0.0000000   0.7777778   0.0000000), wk =   0.0000000
        k(  317) = (  -0.3333333   0.5555556   0.0000000), wk =   0.0123457
        k(  318) = (  -0.1111111   0.7777778   0.0000000), wk =   0.0000000
        k(  319) = (   0.3888889  -0.6111111   0.0000000), wk =   0.0061728
        k(  320) = (   0.6111111  -0.3888889   0.0000000), wk =   0.0000000
        k(  321) = (  -0.2222222  -0.3888889   0.0000000), wk =   0.0123457
        k(  322) = (   0.0000000  -0.1666667   0.0000000), wk =   0.0000000
        k(  323) = (  -0.3888889   0.6111111   0.0000000), wk =   0.0061728
        k(  324) = (  -0.1666667   0.8333333   0.0000000), wk =   0.0000000
        k(  325) = (  -0.5555556   0.2777778   0.0000000), wk =   0.0123457
        k(  326) = (  -0.3333333   0.5000000   0.0000000), wk =   0.0000000
        k(  327) = (  -0.2777778  -0.2777778   0.0000000), wk =   0.0061728
        k(  328) = (  -0.0555556  -0.0555556   0.0000000), wk =   0.0000000
        k(  329) = (  -0.2777778   0.5555556   0.0000000), wk =   0.0123457
        k(  330) = (  -0.0555556   0.7777778   0.0000000), wk =   0.0000000
        k(  331) = (  -0.6111111   0.2777778   0.0000000), wk =   0.0123457
        k(  332) = (  -0.3888889   0.5000000   0.0000000), wk =   0.0000000
        k(  333) = (   0.3333333  -0.6111111   0.0000000), wk =   0.0123457
        k(  334) = (   0.5555556  -0.3888889   0.0000000), wk =   0.0000000
        k(  335) = (  -0.2777778  -0.3333333   0.0000000), wk =   0.0123457
        k(  336) = (  -0.0555556  -0.1111111   0.0000000), wk =   0.0000000
        k(  337) = (  -0.2777778   0.6111111   0.0000000), wk =   0.0123457
        k(  338) = (  -0.0555556   0.8333333   0.0000000), wk =   0.0000000
        k(  339) = (  -0.3333333   0.6111111   0.0000000), wk =   0.0123457
        k(  340) = (  -0.1111111   0.8333333   0.0000000), wk =   0.0000000
        k(  341) = (  -0.3333333  -0.3333333   0.0000000), wk =   0.0061728
        k(  342) = (  -0.1111111  -0.1111111   0.0000000), wk =   0.0000000

     PseudoPot. # 1 for C  read from file:
     ../pseudo/c_pbe_v1.2.uspp.F.UPF
     MD5 check sum: d1aef80898a10debaa0f26306b886e00
     Pseudo is Ultrasoft + core correction, Zval =  4.0
     Generated by new atomic code, or converted to UPF format
     Using radial grid of  721 points,  4 beta functions with: 
                l(1) =   0
                l(2) =   0
                l(3) =   1
                l(4) =   1
     Q(r) pseudized with  8 coefficients,  rinner =    1.100   1.100   1.100


     PseudoPot. # 2 for F  read from file:
     ../pseudo/f_pbe_v1.4.uspp.F.UPF
     MD5 check sum: 4c38b6a325caf53ec0e86aed9459de46
     Pseudo is Ultrasoft, Zval =  7.0
     Generated by new atomic code, or converted to UPF format
     Using radial grid of  799 points,  4 beta functions with: 
                l(1) =   0
                l(2) =   0
                l(3) =   1
                l(4) =   1
     Q(r) pseudized with  8 coefficients,  rinner =    0.950   0.950   0.950


     point group C_2  (2)   
     there are  2 classes
     the character table:

       E     C2   
A      1.00  1.00
B      1.00 -1.00

     the symmetry operations in each class and the name of the first element:

     E        1
          identity                                               
     C2       2
          180 deg rotation - cryst. axis [1,1,0]                 


     Atomic displacements:
     There are   12 irreducible representations

     Representation     1      1 modes -  Not done in this run
     Irreps are as follows:

                     mode #   1
                     (  -0.00000  -0.00000   ) 
                     (  -0.00000  -0.00000   ) 
                     (  -0.00000  -0.00000   ) 
                     (  -0.00000  -0.00000   ) 
                     (  -0.00000  -0.00000   ) 
                     (  -0.00000  -0.00000   ) 
                     (  -0.10641  -0.00000   ) 
                     (  -0.18290   0.67259   ) 
                     (  -0.02392   0.04778   ) 
                     (   0.55536   0.20474   ) 
                     (   0.29930   0.23921   ) 
                     (  -0.04290  -0.03186   ) 

     Representation     2      1 modes -  Not done in this run
     Irreps are as follows:

                     mode #   2
                     (  -0.34616   0.00000   ) 
                     (   0.60030   0.12160   ) 
                     (  -0.05888  -0.03952   ) 
                     (   0.22404  -0.66414   ) 
                     (   0.05994   0.01020   ) 
                     (   0.04914  -0.05112   ) 
                     (   0.00000  -0.00000   ) 
                     (   0.00000  -0.00000   ) 
                     (   0.00000  -0.00000   ) 
                     (   0.00000  -0.00000   ) 
                     (   0.00000  -0.00000   ) 
                     (   0.00000  -0.00000   ) 

     Representation     3      1 modes -  Not done in this run
     Irreps are as follows:

                     mode #   3
                     (  -0.08724  -0.00000   ) 
                     (   0.03254  -0.01629   ) 
                     (   0.66713   0.21448   ) 
                     (  -0.00142  -0.07316   ) 
                     (  -0.01831   0.05697   ) 
                     (  -0.32706   0.61975   ) 
                     (   0.00000  -0.00000   ) 
                     (   0.00000  -0.00000   ) 
                     (   0.00000  -0.00000   ) 
                     (   0.00000  -0.00000   ) 
                     (   0.00000  -0.00000   ) 
                     (   0.00000  -0.00000   ) 

     Representation     4      1 modes -  Not done in this run
     Irreps are as follows:

                     mode #   4
                     (  -0.00000  -0.00000   ) 
                     (  -0.00000  -0.00000   ) 
                     (  -0.00000  -0.00000   ) 
                     (  -0.00000  -0.00000   ) 
                     (  -0.00000  -0.00000   ) 
                     (  -0.00000  -0.00000   ) 
                     (  -0.09220  -0.00000   ) 
                     (   0.03644   0.02889   ) 
                     (  -0.30935  -0.62741   ) 
                     (   0.03812  -0.07213   ) 
                     (   0.00352   0.06320   ) 
                     (   0.67159  -0.19571   ) 

     Representation     5      1 modes -  Not done in this run
     Irreps are as follows:

                     mode #   5
                     (  -0.00000  -0.00000   ) 
                     (  -0.00000  -0.00000   ) 
                     (  -0.00000  -0.00000   ) 
                     (  -0.00000  -0.00000   ) 
                     (  -0.00000  -0.00000   ) 
                     (  -0.00000  -0.00000   ) 
                     (  -0.69295  -0.00000   ) 
                     (   0.02324  -0.10712   ) 
                     (   0.04483   0.07614   ) 
                     (  -0.02770  -0.37714   ) 
                     (  -0.15494   0.57025   ) 
                     (  -0.08277   0.03093   ) 

     Representation     6      1 modes -  Not done in this run
     Irreps are as follows:

                     mode #   6
                     (  -0.61038   0.00000   ) 
                     (  -0.34510  -0.06663   ) 
                     (  -0.06196  -0.00825   ) 
                     (  -0.05573  -0.01625   ) 
                     (  -0.15456   0.68471   ) 
                     (   0.01888  -0.05959   ) 
                     (  -0.00000  -0.00000   ) 
                     (  -0.00000  -0.00000   ) 
                     (  -0.00000  -0.00000   ) 
                     (  -0.00000  -0.00000   ) 
                     (  -0.00000  -0.00000   ) 
                     (  -0.00000  -0.00000   ) 

     Representation     7      1 modes -  Not done in this run
     Irreps are as follows:

                     mode #   7
                     (   0.00000  -0.00000   ) 
                     (   0.00000  -0.00000   ) 
                     (   0.00000  -0.00000   ) 
                     (   0.00000  -0.00000   ) 
                     (   0.00000  -0.00000   ) 
                     (   0.00000  -0.00000   ) 
                     (  -0.47757   0.00000   ) 
                     (   0.46861   0.21755   ) 
                     (   0.06998  -0.01037   ) 
                     (  -0.29747   0.60210   ) 
                     (  -0.07599  -0.19545   ) 
                     (   0.00194  -0.07072   ) 

     Representation     8      1 modes -  Not done in this run
     Irreps are as follows:

                     mode #   8
                     (  -0.18193  -0.00000   ) 
                     (  -0.66220   0.07269   ) 
                     (   0.10953  -0.10542   ) 
                     (   0.02180  -0.48612   ) 
                     (   0.04906  -0.48754   ) 
                     (  -0.08480  -0.12617   ) 
                     (  -0.00000   0.00000   ) 
                     (  -0.00000   0.00000   ) 
                     (  -0.00000   0.00000   ) 
                     (  -0.00000   0.00000   ) 
                     (  -0.00000   0.00000   ) 
                     (  -0.00000   0.00000   ) 

     Representation     9      1 modes -  To be done
     Irreps are as follows:

                     mode #   9
                     (  -0.00000  -0.00000   ) 
                     (  -0.00000  -0.00000   ) 
                     (  -0.00000  -0.00000   ) 
                     (  -0.00000  -0.00000   ) 
                     (  -0.00000  -0.00000   ) 
                     (  -0.00000  -0.00000   ) 
                     (  -0.10743  -0.00000   ) 
                     (  -0.00021  -0.00890   ) 
                     (  -0.68033   0.15979   ) 
                     (  -0.00170   0.05406   ) 
                     (   0.02056  -0.09095   ) 
                     (   0.03923   0.69774   ) 

     Representation    10      1 modes -  Not done in this run
     Irreps are as follows:

                     mode #  10
                     (  -0.03498   0.00000   ) 
                     (   0.16460  -0.02287   ) 
                     (   0.47983  -0.49084   ) 
                     (  -0.00829   0.16104   ) 
                     (   0.00223   0.05321   ) 
                     (  -0.40007  -0.55777   ) 
                     (  -0.00000   0.00000   ) 
                     (  -0.00000   0.00000   ) 
                     (  -0.00000   0.00000   ) 
                     (  -0.00000   0.00000   ) 
                     (  -0.00000   0.00000   ) 
                     (  -0.00000   0.00000   ) 

     Representation    11      1 modes -  Not done in this run
     Irreps are as follows:

                     mode #  11
                     (  -0.68241   0.00000   ) 
                     (   0.16811  -0.01821   ) 
                     (  -0.05379   0.05326   ) 
                     (  -0.06900   0.48213   ) 
                     (   0.09699  -0.49764   ) 
                     (   0.04311   0.06223   ) 
                     (  -0.00000  -0.00000   ) 
                     (  -0.00000  -0.00000   ) 
                     (  -0.00000  -0.00000   ) 
                     (  -0.00000  -0.00000   ) 
                     (  -0.00000  -0.00000   ) 
                     (  -0.00000  -0.00000   ) 

     Representation    12      1 modes -  Not done in this run
     Irreps are as follows:

                     mode #  12
                     (   0.00000  -0.00000   ) 
                     (   0.00000  -0.00000   ) 
                     (   0.00000  -0.00000   ) 
                     (   0.00000  -0.00000   ) 
                     (   0.00000  -0.00000   ) 
                     (   0.00000  -0.00000   ) 
                     (  -0.51028  -0.00000   ) 
                     (  -0.43853  -0.20173   ) 
                     (   0.07773  -0.02393   ) 
                     (   0.19369  -0.09241   ) 
                     (   0.21415  -0.63362   ) 
                     (  -0.01007  -0.08070   ) 

     Compute atoms:     3,    4,


     PHONON       :      1h21m CPU      2h27m WALL



     Representation #   9 mode #   9

     Self-consistent Calculation

      iter #   1 total cpu time :  9698.7 secs   av.it.:   7.0
      thresh= 1.000E-02 alpha_mix =  0.700 |ddv_scf|^2 =  1.098E-07

      iter #   2 total cpu time : 11300.6 secs   av.it.:  14.0
      thresh= 3.313E-05 alpha_mix =  0.700 |ddv_scf|^2 =  2.003E-08

      iter #   3 total cpu time : 12941.2 secs   av.it.:  14.0
      thresh= 1.415E-05 alpha_mix =  0.700 |ddv_scf|^2 =  3.760E-09

      iter #   4 total cpu time : 14560.3 secs   av.it.:  13.9
      thresh= 6.132E-06 alpha_mix =  0.700 |ddv_scf|^2 =  3.876E-10

      iter #   5 total cpu time : 16181.7 secs   av.it.:  13.7
      thresh= 1.969E-06 alpha_mix =  0.700 |ddv_scf|^2 =  2.222E-11

      iter #   6 total cpu time : 17825.2 secs   av.it.:  13.9
      thresh= 4.714E-07 alpha_mix =  0.700 |ddv_scf|^2 =  3.405E-12

      iter #   7 total cpu time : 19367.9 secs   av.it.:  13.7
      thresh= 1.845E-07 alpha_mix =  0.700 |ddv_scf|^2 =  2.511E-15

     End of self-consistent calculation

     Convergence has been achieved 

     Not diagonalizing because representation    0 is not done

     init_run     :      1.73s CPU      2.11s WALL (       1 calls)
     electrons    :   3020.88s CPU   5178.95s WALL (       1 calls)

     Called by init_run:
     wfcinit      :      0.01s CPU      0.02s WALL (       1 calls)
     wfcinit:atom :      0.79s CPU      1.10s WALL (     342 calls)
     wfcinit:wfcr :     96.69s CPU    151.62s WALL (     342 calls)
     potinit      :      0.22s CPU      0.31s WALL (       1 calls)
     hinit0       :      0.43s CPU      0.44s WALL (       1 calls)

     Called by electrons:
     c_bands      :   3020.83s CPU   5178.84s WALL (       1 calls)
     v_of_rho     :      0.31s CPU      0.35s WALL (       2 calls)
     v_h          :      0.02s CPU      0.02s WALL (       2 calls)
     v_xc         :      0.29s CPU      0.33s WALL (       2 calls)
     newd         :      0.38s CPU      0.94s WALL (       2 calls)

     Called by c_bands:
     init_us_2    :      9.47s CPU     18.12s WALL (    2394 calls)
     init_us_2:cp :      9.47s CPU     18.12s WALL (    2394 calls)
     cegterg      :   2891.81s CPU   4966.08s WALL (     670 calls)

     Called by sum_band:

     Called by *egterg:
     cdiaghg      :    165.00s CPU    355.70s WALL (    9718 calls)
     cegterg:over :    889.89s CPU   1638.92s WALL (    9376 calls)
     cegterg:upda :     59.03s CPU     99.57s WALL (    9376 calls)
     cegterg:last :     35.70s CPU     44.16s WALL (    1690 calls)
     h_psi        :   4027.77s CPU   6445.50s WALL (   31795 calls)
     s_psi        :    222.55s CPU    414.31s WALL (   54399 calls)
     g_psi        :      2.55s CPU      3.34s WALL (    9376 calls)

     Called by h_psi:
     h_psi:calbec :    715.28s CPU   1818.04s WALL (   31795 calls)
     vloc_psi     :   3185.98s CPU   4409.80s WALL (   31795 calls)
     add_vuspsi   :    117.92s CPU    200.76s WALL (   31795 calls)

     General routines
     calbec       :   1441.99s CPU   3209.78s WALL (   59700 calls)
     fft          :      2.93s CPU      3.77s WALL (     159 calls)
     ffts         :      7.74s CPU     12.60s WALL (     195 calls)
     fftw         :   4619.18s CPU   6933.23s WALL (  582715 calls)
     davcio       :      5.45s CPU     49.88s WALL (    7642 calls)

     Parallel routines

     PHONON       :      3h 0m CPU      5h24m WALL

     INITIALIZATION: 
     phq_setup    :      0.84s CPU      1.14s WALL (       1 calls)
     phq_init     :   1874.76s CPU   3599.50s WALL (       1 calls)

     phq_init     :   1874.76s CPU   3599.50s WALL (       1 calls)
     set_drhoc    :      0.47s CPU      0.47s WALL (       1 calls)
     init_vloc    :      0.40s CPU      0.40s WALL (       2 calls)
     init_us_1    :      0.12s CPU      0.12s WALL (       2 calls)
     init_us_2    :      9.47s CPU     18.12s WALL (    2394 calls)
     newd         :      0.38s CPU      0.94s WALL (       2 calls)
     dvanqq       :      3.92s CPU      3.92s WALL (       1 calls)
     drho         :   1819.73s CPU   3487.17s WALL (       1 calls)

     DYNAMICAL MATRIX:
     phqscf       :   5937.61s CPU  10604.31s WALL (       1 calls)
     dynmatrix    :      0.04s CPU      1.33s WALL (       1 calls)

     phqscf       :   5937.61s CPU  10604.31s WALL (       1 calls)
     solve_linter :   5897.50s CPU  10527.51s WALL (       1 calls)
     drhodv       :     40.12s CPU     76.71s WALL (       1 calls)



     phqscf       :   5937.61s CPU  10604.31s WALL (       1 calls)
     solve_linter :   5897.50s CPU  10527.51s WALL (       1 calls)

     solve_linter :   5897.50s CPU  10527.51s WALL (       1 calls)
     dvqpsi_us    :     30.52s CPU     45.25s WALL (     171 calls)
     sth_kernel   :   5860.36s CPU  10466.94s WALL (       7 calls)
     apply_dpot_b :     91.06s CPU    127.74s WALL (    1026 calls)
     ortho        :     73.78s CPU    140.24s WALL (    1197 calls)
     cgsolve      :   5512.89s CPU   9901.50s WALL (    1197 calls)
     incdrhoscf   :    145.01s CPU    207.58s WALL (    1197 calls)
     addusddens   :      6.82s CPU     12.77s WALL (      19 calls)
     dv_of_drho   :      0.63s CPU      0.80s WALL (       7 calls)
     mix_pot      :      0.10s CPU      1.37s WALL (       7 calls)
     psymdvscf    :      1.31s CPU      1.90s WALL (       7 calls)
     newdq        :      1.15s CPU      1.21s WALL (       7 calls)
     adddvscf     :     18.19s CPU     43.23s WALL (    1026 calls)
     drhodvus     :      0.00s CPU      0.02s WALL (       1 calls)

     dvqpsi_us    :     30.52s CPU     45.25s WALL (     171 calls)
     dvqpsi_us_on :      4.69s CPU     10.69s WALL (     171 calls)

     cgsolve      :   5512.89s CPU   9901.50s WALL (    1197 calls)
     ch_psi       :   3610.93s CPU   6099.64s WALL (   21407 calls)

     ch_psi       :   3610.93s CPU   6099.64s WALL (   21407 calls)
     h_psi        :   4027.77s CPU   6445.50s WALL (   31795 calls)
     last         :    810.09s CPU   1551.25s WALL (   21407 calls)

     h_psi        :   4027.77s CPU   6445.50s WALL (   31795 calls)
     add_vuspsi   :    117.92s CPU    200.76s WALL (   31795 calls)

     incdrhoscf   :    145.01s CPU    207.58s WALL (    1197 calls)
     addusdbec    :    128.83s CPU    286.84s WALL (    3249 calls)

     drhodvus     :      0.00s CPU      0.02s WALL (       1 calls)

      General routines
     calbec       :   1441.99s CPU   3209.78s WALL (   59700 calls)
     fft          :      2.93s CPU      3.77s WALL (     159 calls)
     ffts         :      7.74s CPU     12.60s WALL (     195 calls)
     fftw         :   4619.18s CPU   6933.23s WALL (  582715 calls)
     davcio       :      5.45s CPU     49.88s WALL (    7642 calls)
     write_rec    :      0.00s CPU      0.77s WALL (       8 calls)


     PHONON       :      3h 0m CPU      5h24m WALL


   This run was terminated on:  22:44:43   2Mar2024            

=------------------------------------------------------------------------------=
   JOB DONE.
=------------------------------------------------------------------------------=
