
     Program PHONON v.7.1 starts on  2Mar2024 at 17:20:37 

     This program is part of the open-source Quantum ESPRESSO suite
     for quantum simulation of materials; please cite
         "P. Giannozzi et al., J. Phys.:Condens. Matter 21 395502 (2009);
         "P. Giannozzi et al., J. Phys.:Condens. Matter 29 465901 (2017);
         "P. Giannozzi et al., J. Chem. Phys. 152 154105 (2020);
          URL http://www.quantum-espresso.org", 
     in publications or presentations arising from this work. More details at
     http://www.quantum-espresso.org/quote

     Parallel version (MPI), running on     8 processors

     MPI processes distributed on     1 nodes
     R & G space division:  proc/nbgrp/npool/nimage =       8
     349932 MiB available memory on the printing compute node when the environment starts

     Reading input from input.10.2
      Title line not specified: using 'default'.

     Reading xml data from directory:

     /home/ext_chineason_graduate_utm_my/fgc/tmp/10.2/fgc.save/

     IMPORTANT: XC functional enforced from input :
     Exchange-correlation= PBE
                           (   1   4   3   4   0   0   0)
     Any further DFT definition will be discarded
     Please, verify this is what you really want


     Parallelization info
     --------------------
     sticks:   dense  smooth     PW     G-vecs:    dense   smooth      PW
     Min         416     416    114               138498   138498   19368
     Max         417     417    115               138521   138521   19383
     Sum        3331    3331    913              1108055  1108055  154987

     Using Slab Decomposition

 ----2D----2D----2D----2D----2D----2D----2D----2D----2D----2D----2D----2D
  The code is running with the 2D cutoff
  Please refer to:
  Sohier, T., Calandra, M., & Mauri, F. (2017), 
  Density functional perturbation theory for gated two-dimensional heterostructures:
  Theoretical developments and application to flexural phonons in graphene.
  Physical Review B, 96(7), 75448. https://doi.org/10.1103/PhysRevB.96.075448
 ----2D----2D----2D----2D----2D----2D----2D----2D----2D----2D----2D----2D

     negative rho (up, down):  5.457E-06 0.000E+00
     Reading collected, re-writing distributed wavefunctions
        1 /  12 q-points for this run, from 10 to 10:
       N       xq(1)         xq(2)         xq(3) 
       1   0.000000000   0.000000000   0.000000000
       2   0.000000000   0.128300060   0.000000000
       3   0.000000000   0.256600120   0.000000000
       4   0.000000000   0.384900179   0.000000000
       5   0.000000000   0.513200239   0.000000000
       6   0.111111111   0.192450090   0.000000000
       7   0.111111111   0.320750150   0.000000000
       8   0.111111111   0.449050209   0.000000000
       9   0.111111111   0.577350269   0.000000000
      10   0.222222222   0.384900179   0.000000000
      11   0.222222222   0.513200239   0.000000000
      12   0.333333333   0.577350269   0.000000000


     Calculation of q =    0.2222222   0.3849002   0.0000000
     Subspace diagonalization in iterative solution of the eigenvalue problem:
     a serial algorithm will be used


     Parallelization info
     --------------------
     sticks:   dense  smooth     PW     G-vecs:    dense   smooth      PW
     Min         416     416    119               138498   138498   20835
     Max         417     417    120               138521   138521   20854
     Sum        3331    3331    955              1108055  1108055  166759

     Using Slab Decomposition


     Title: 
     default                                                                    


     bravais-lattice index     =            4
     lattice parameter (alat)  =       4.9233  a.u.
     unit-cell volume          =     733.8532 (a.u.)^3
     number of atoms/cell      =            4
     number of atomic types    =            2
     number of electrons       =        22.00
     number of Kohn-Sham states=           15
     kinetic-energy cutoff     =     500.0000  Ry
     charge density cutoff     =    2000.0000  Ry
     Exchange-correlation= PBE
                           (   1   4   3   4   0   0   0)

     celldm(1)=   4.923251  celldm(2)=   0.000000  celldm(3)=   7.101051
     celldm(4)=   0.000000  celldm(5)=   0.000000  celldm(6)=   0.000000

     crystal axes: (cart. coord. in units of alat)
               a(1) = (   1.000000   0.000000   0.000000 )  
               a(2) = (  -0.500000   0.866025   0.000000 )  
               a(3) = (   0.000000   0.000000   7.101051 )  

     reciprocal axes: (cart. coord. in units 2 pi/alat)
               b(1) = (  1.000000  0.577350 -0.000000 )  
               b(2) = (  0.000000  1.154701  0.000000 )  
               b(3) = (  0.000000 -0.000000  0.140824 )  


     PseudoPot. # 1 for C  read from file:
     ../pseudo/c_pbe_v1.2.uspp.F.UPF
     MD5 check sum: d1aef80898a10debaa0f26306b886e00
     Pseudo is Ultrasoft + core correction, Zval =  4.0
     Generated by new atomic code, or converted to UPF format
     Using radial grid of  721 points,  4 beta functions with: 
                l(1) =   0
                l(2) =   0
                l(3) =   1
                l(4) =   1
     Q(r) pseudized with  8 coefficients,  rinner =    1.100   1.100   1.100


     PseudoPot. # 2 for F  read from file:
     ../pseudo/f_pbe_v1.4.uspp.F.UPF
     MD5 check sum: 4c38b6a325caf53ec0e86aed9459de46
     Pseudo is Ultrasoft, Zval =  7.0
     Generated by new atomic code, or converted to UPF format
     Using radial grid of  799 points,  4 beta functions with: 
                l(1) =   0
                l(2) =   0
                l(3) =   1
                l(4) =   1
     Q(r) pseudized with  8 coefficients,  rinner =    0.950   0.950   0.950


     atomic species   valence    mass     pseudopotential
        C              4.00    12.01070     C ( 1.00)
        F              7.00    18.99840     F ( 1.00)

     12 Sym. Ops., with inversion, found


                                    s                        frac. trans.

      isym =  1     identity                                     

 cryst.   s( 1) = (     1          0          0      )
                  (     0          1          0      )
                  (     0          0          1      )

 cart.    s( 1) = (  1.0000000  0.0000000  0.0000000 )
                  (  0.0000000  1.0000000  0.0000000 )
                  (  0.0000000  0.0000000  1.0000000 )


      isym =  2     180 deg rotation - cryst. axis [1,1,0]       

 cryst.   s( 2) = (     0          1          0      )    f =(  0.5000000 )
                  (     1          0          0      )       (  0.5000000 )
                  (     0          0         -1      )       (  0.0000000 )

 cart.    s( 2) = ( -0.5000000  0.8660254  0.0000000 )    f =(  0.2500000 )
                  (  0.8660254  0.5000000  0.0000000 )       (  0.4330127 )
                  (  0.0000000  0.0000000 -1.0000000 )       (  0.0000000 )


      isym =  3     120 deg rotation - cryst. axis [0,0,1]       

 cryst.   s( 3) = (     0          1          0      )    f =( -0.5000000 )
                  (    -1         -1          0      )       ( -0.5000000 )
                  (     0          0          1      )       (  0.0000000 )

 cart.    s( 3) = ( -0.5000000 -0.8660254  0.0000000 )    f =( -0.2500000 )
                  (  0.8660254 -0.5000000  0.0000000 )       ( -0.4330127 )
                  (  0.0000000  0.0000000  1.0000000 )       (  0.0000000 )


      isym =  4     120 deg rotation - cryst. axis [0,0,-1]      

 cryst.   s( 4) = (    -1         -1          0      )    f =(  0.0000000 )
                  (     1          0          0      )       ( -0.5000000 )
                  (     0          0          1      )       (  0.0000000 )

 cart.    s( 4) = ( -0.5000000  0.8660254  0.0000000 )    f =(  0.2500000 )
                  ( -0.8660254 -0.5000000  0.0000000 )       ( -0.4330127 )
                  (  0.0000000  0.0000000  1.0000000 )       (  0.0000000 )


      isym =  5     180 deg rotation - cryst. axis [0,1,0]       

 cryst.   s( 5) = (    -1         -1          0      )    f =(  0.0000000 )
                  (     0          1          0      )       ( -0.5000000 )
                  (     0          0         -1      )       (  0.0000000 )

 cart.    s( 5) = ( -0.5000000 -0.8660254  0.0000000 )    f =(  0.2500000 )
                  ( -0.8660254  0.5000000  0.0000000 )       ( -0.4330127 )
                  (  0.0000000  0.0000000 -1.0000000 )       (  0.0000000 )


      isym =  6     180 deg rotation - cart. axis [1,0,0]        

 cryst.   s( 6) = (     1          0          0      )
                  (    -1         -1          0      )
                  (     0          0         -1      )

 cart.    s( 6) = (  1.0000000  0.0000000  0.0000000 )
                  (  0.0000000 -1.0000000  0.0000000 )
                  (  0.0000000  0.0000000 -1.0000000 )


      isym =  7     inversion                                    

 cryst.   s( 7) = (    -1          0          0      )
                  (     0         -1          0      )
                  (     0          0         -1      )

 cart.    s( 7) = ( -1.0000000  0.0000000  0.0000000 )
                  (  0.0000000 -1.0000000  0.0000000 )
                  (  0.0000000  0.0000000 -1.0000000 )


      isym =  8     inv. 180 deg rotation - cart. axis [1,0,0]   

 cryst.   s( 8) = (    -1          0          0      )
                  (     1          1          0      )
                  (     0          0          1      )

 cart.    s( 8) = ( -1.0000000 -0.0000000  0.0000000 )
                  (  0.0000000  1.0000000  0.0000000 )
                  (  0.0000000  0.0000000  1.0000000 )


      isym =  9     inv. 120 deg rotation - cryst. axis [0,0,1]  

 cryst.   s( 9) = (     0         -1          0      )    f =(  0.5000000 )
                  (     1          1          0      )       ( -0.5000000 )
                  (     0          0         -1      )       (  0.0000000 )

 cart.    s( 9) = (  0.5000000  0.8660254  0.0000000 )    f =(  0.7500000 )
                  ( -0.8660254  0.5000000  0.0000000 )       ( -0.4330127 )
                  (  0.0000000  0.0000000 -1.0000000 )       (  0.0000000 )


      isym = 10     inv. 120 deg rotation - cryst. axis [0,0,-1] 

 cryst.   s(10) = (     1          1          0      )    f =(  0.0000000 )
                  (    -1          0          0      )       (  0.5000000 )
                  (     0          0         -1      )       (  0.0000000 )

 cart.    s(10) = (  0.5000000 -0.8660254  0.0000000 )    f =( -0.2500000 )
                  (  0.8660254  0.5000000  0.0000000 )       (  0.4330127 )
                  (  0.0000000  0.0000000 -1.0000000 )       (  0.0000000 )


      isym = 11     inv. 180 deg rotation - cryst. axis [0,1,0]  

 cryst.   s(11) = (     1          1          0      )    f =(  0.0000000 )
                  (     0         -1          0      )       ( -0.5000000 )
                  (     0          0          1      )       (  0.0000000 )

 cart.    s(11) = (  0.5000000  0.8660254  0.0000000 )    f =(  0.2500000 )
                  (  0.8660254 -0.5000000  0.0000000 )       ( -0.4330127 )
                  (  0.0000000  0.0000000  1.0000000 )       (  0.0000000 )


      isym = 12     inv. 180 deg rotation - cryst. axis [1,1,0]  

 cryst.   s(12) = (     0         -1          0      )    f =( -0.5000000 )
                  (    -1          0          0      )       ( -0.5000000 )
                  (     0          0          1      )       (  0.0000000 )

 cart.    s(12) = (  0.5000000 -0.8660254  0.0000000 )    f =( -0.2500000 )
                  ( -0.8660254 -0.5000000  0.0000000 )       ( -0.4330127 )
                  (  0.0000000  0.0000000  1.0000000 )       (  0.0000000 )


     point group D_3d (-3m) 
     there are  6 classes
     the character table:

       E     2C3   3C2'  i     2S6   3s_d 
A_1g   1.00  1.00  1.00  1.00  1.00  1.00
A_2g   1.00  1.00 -1.00  1.00  1.00 -1.00
E_g    2.00 -1.00  0.00  2.00 -1.00  0.00
A_1u   1.00  1.00  1.00 -1.00 -1.00 -1.00
A_2u   1.00  1.00 -1.00 -1.00 -1.00  1.00
E_u    2.00 -1.00  0.00 -2.00  1.00  0.00

     the symmetry operations in each class and the name of the first element:

     E        1
          identity                                               
     2C3      3    4
          120 deg rotation - cryst. axis [0,0,1]                 
     3C2'     2    6    5
          180 deg rotation - cryst. axis [1,1,0]                 
     i        7
          inversion                                              
     2S6      9   10
          inv. 120 deg rotation - cryst. axis [0,0,1]            
     3s_d     8   11   12
          inv. 180 deg rotation - cart. axis [1,0,0]             

   Cartesian axes

     site n.     atom                  positions (alat units)
         1           C   tau(   1) = (   0.5000000   0.5773503  -0.0938425  )
         2           C   tau(   2) = (  -0.0000000   0.2886751   0.0938425  )
         3           F   tau(   3) = (   0.5000000   0.5773503  -0.6234719  )
         4           F   tau(   4) = (  -0.0000000   0.2886751   0.6234719  )

   Crystallographic axes

     site n.     atom                  positions (cryst. coord.)
         1           C   tau(   1) = (  0.8333333  0.6666667 -0.0132153  )
         2           C   tau(   2) = (  0.1666667  0.3333333  0.0132153  )
         3           F   tau(   3) = (  0.8333333  0.6666667 -0.0877999  )
         4           F   tau(   4) = (  0.1666667  0.3333333  0.0877999  )

     number of k points=   342  Marzari-Vanderbilt smearing, width (Ry)=  0.0010
                       cart. coord. in units 2pi/alat
        k(    1) = (   0.0000000   0.0000000   0.0000000), wk =   0.0061728
        k(    2) = (   0.2222222   0.3849002   0.0000000), wk =   0.0000000
        k(    3) = (   0.0000000   0.0641500   0.0000000), wk =   0.0123457
        k(    4) = (   0.2222222   0.4490502   0.0000000), wk =   0.0000000
        k(    5) = (   0.0000000   0.1283001   0.0000000), wk =   0.0123457
        k(    6) = (   0.2222222   0.5132002   0.0000000), wk =   0.0000000
        k(    7) = (   0.0000000   0.1924501   0.0000000), wk =   0.0123457
        k(    8) = (   0.2222222   0.5773503   0.0000000), wk =   0.0000000
        k(    9) = (   0.0000000   0.2566001   0.0000000), wk =   0.0123457
        k(   10) = (   0.2222222   0.6415003   0.0000000), wk =   0.0000000
        k(   11) = (   0.0000000   0.3207501   0.0000000), wk =   0.0123457
        k(   12) = (   0.2222222   0.7056503   0.0000000), wk =   0.0000000
        k(   13) = (   0.0000000   0.3849002   0.0000000), wk =   0.0123457
        k(   14) = (   0.2222222   0.7698004   0.0000000), wk =   0.0000000
        k(   15) = (   0.0000000   0.4490502   0.0000000), wk =   0.0123457
        k(   16) = (   0.2222222   0.8339504   0.0000000), wk =   0.0000000
        k(   17) = (   0.0000000   0.5132002   0.0000000), wk =   0.0123457
        k(   18) = (   0.2222222   0.8981004   0.0000000), wk =   0.0000000
        k(   19) = (   0.0000000  -0.5773503   0.0000000), wk =   0.0123457
        k(   20) = (   0.2222222  -0.1924501   0.0000000), wk =   0.0000000
        k(   21) = (   0.0555556   0.0962250   0.0000000), wk =   0.0061728
        k(   22) = (   0.2777778   0.4811252   0.0000000), wk =   0.0000000
        k(   23) = (   0.0555556   0.1603751   0.0000000), wk =   0.0123457
        k(   24) = (   0.2777778   0.5452753   0.0000000), wk =   0.0000000
        k(   25) = (   0.0555556   0.2245251   0.0000000), wk =   0.0123457
        k(   26) = (   0.2777778   0.6094253   0.0000000), wk =   0.0000000
        k(   27) = (   0.0555556   0.2886751   0.0000000), wk =   0.0123457
        k(   28) = (   0.2777778   0.6735753   0.0000000), wk =   0.0000000
        k(   29) = (   0.0555556   0.3528252   0.0000000), wk =   0.0123457
        k(   30) = (   0.2777778   0.7377253   0.0000000), wk =   0.0000000
        k(   31) = (   0.0555556   0.4169752   0.0000000), wk =   0.0123457
        k(   32) = (   0.2777778   0.8018754   0.0000000), wk =   0.0000000
        k(   33) = (   0.0555556   0.4811252   0.0000000), wk =   0.0123457
        k(   34) = (   0.2777778   0.8660254   0.0000000), wk =   0.0000000
        k(   35) = (   0.0555556   0.5452753   0.0000000), wk =   0.0123457
        k(   36) = (   0.2777778   0.9301754   0.0000000), wk =   0.0000000
        k(   37) = (   0.1111111   0.1924501   0.0000000), wk =   0.0061728
        k(   38) = (   0.3333333   0.5773503   0.0000000), wk =   0.0000000
        k(   39) = (   0.1111111   0.2566001   0.0000000), wk =   0.0123457
        k(   40) = (   0.3333333   0.6415003   0.0000000), wk =   0.0000000
        k(   41) = (   0.1111111   0.3207501   0.0000000), wk =   0.0123457
        k(   42) = (   0.3333333   0.7056503   0.0000000), wk =   0.0000000
        k(   43) = (   0.1111111   0.3849002   0.0000000), wk =   0.0123457
        k(   44) = (   0.3333333   0.7698004   0.0000000), wk =   0.0000000
        k(   45) = (   0.1111111   0.4490502   0.0000000), wk =   0.0123457
        k(   46) = (   0.3333333   0.8339504   0.0000000), wk =   0.0000000
        k(   47) = (   0.1111111   0.5132002   0.0000000), wk =   0.0123457
        k(   48) = (   0.3333333   0.8981004   0.0000000), wk =   0.0000000
        k(   49) = (   0.1111111   0.5773503   0.0000000), wk =   0.0123457
        k(   50) = (   0.3333333   0.9622504   0.0000000), wk =   0.0000000
        k(   51) = (   0.1666667   0.2886751   0.0000000), wk =   0.0061728
        k(   52) = (   0.3888889   0.6735753   0.0000000), wk =   0.0000000
        k(   53) = (   0.1666667   0.3528252   0.0000000), wk =   0.0123457
        k(   54) = (   0.3888889   0.7377253   0.0000000), wk =   0.0000000
        k(   55) = (   0.1666667   0.4169752   0.0000000), wk =   0.0123457
        k(   56) = (   0.3888889   0.8018754   0.0000000), wk =   0.0000000
        k(   57) = (   0.1666667   0.4811252   0.0000000), wk =   0.0123457
        k(   58) = (   0.3888889   0.8660254   0.0000000), wk =   0.0000000
        k(   59) = (   0.1666667   0.5452753   0.0000000), wk =   0.0123457
        k(   60) = (   0.3888889   0.9301754   0.0000000), wk =   0.0000000
        k(   61) = (   0.2222222   0.3849002   0.0000000), wk =   0.0061728
        k(   62) = (   0.4444444   0.7698004   0.0000000), wk =   0.0000000
        k(   63) = (   0.2222222   0.4490502   0.0000000), wk =   0.0123457
        k(   64) = (   0.4444444   0.8339504   0.0000000), wk =   0.0000000
        k(   65) = (   0.2222222   0.5132002   0.0000000), wk =   0.0123457
        k(   66) = (   0.4444444   0.8981004   0.0000000), wk =   0.0000000
        k(   67) = (   0.2222222   0.5773503   0.0000000), wk =   0.0123457
        k(   68) = (   0.4444444   0.9622504   0.0000000), wk =   0.0000000
        k(   69) = (   0.2777778   0.4811252   0.0000000), wk =   0.0061728
        k(   70) = (   0.5000000   0.8660254   0.0000000), wk =   0.0000000
        k(   71) = (   0.2777778   0.5452753   0.0000000), wk =   0.0123457
        k(   72) = (   0.5000000   0.9301754   0.0000000), wk =   0.0000000
        k(   73) = (   0.3333333   0.5773503   0.0000000), wk =   0.0061728
        k(   74) = (   0.5555556   0.9622504   0.0000000), wk =   0.0000000
        k(   75) = (  -0.0555556  -0.0320750   0.0000000), wk =   0.0123457
        k(   76) = (   0.1666667   0.3528252   0.0000000), wk =   0.0000000
        k(   77) = (   0.0555556  -0.0320750   0.0000000), wk =   0.0123457
        k(   78) = (   0.2777778   0.3528252   0.0000000), wk =   0.0000000
        k(   79) = (  -0.1111111  -0.0641500   0.0000000), wk =   0.0123457
        k(   80) = (   0.1111111   0.3207501   0.0000000), wk =   0.0000000
        k(   81) = (   0.1111111  -0.0641500   0.0000000), wk =   0.0123457
        k(   82) = (   0.3333333   0.3207501   0.0000000), wk =   0.0000000
        k(   83) = (  -0.1666667  -0.0962250   0.0000000), wk =   0.0123457
        k(   84) = (   0.0555556   0.2886751   0.0000000), wk =   0.0000000
        k(   85) = (   0.1666667  -0.0962250   0.0000000), wk =   0.0123457
        k(   86) = (   0.3888889   0.2886751   0.0000000), wk =   0.0000000
        k(   87) = (  -0.2222222  -0.1283001   0.0000000), wk =   0.0123457
        k(   88) = (   0.0000000   0.2566001   0.0000000), wk =   0.0000000
        k(   89) = (   0.2222222  -0.1283001   0.0000000), wk =   0.0123457
        k(   90) = (   0.4444444   0.2566001   0.0000000), wk =   0.0000000
        k(   91) = (  -0.2777778  -0.1603751   0.0000000), wk =   0.0123457
        k(   92) = (  -0.0555556   0.2245251   0.0000000), wk =   0.0000000
        k(   93) = (   0.2777778  -0.1603751   0.0000000), wk =   0.0123457
        k(   94) = (   0.5000000   0.2245251   0.0000000), wk =   0.0000000
        k(   95) = (  -0.3333333  -0.1924501   0.0000000), wk =   0.0123457
        k(   96) = (  -0.1111111   0.1924501   0.0000000), wk =   0.0000000
        k(   97) = (   0.3333333  -0.1924501   0.0000000), wk =   0.0123457
        k(   98) = (   0.5555556   0.1924501   0.0000000), wk =   0.0000000
        k(   99) = (  -0.3888889  -0.2245251   0.0000000), wk =   0.0123457
        k(  100) = (  -0.1666667   0.1603751   0.0000000), wk =   0.0000000
        k(  101) = (   0.3888889  -0.2245251   0.0000000), wk =   0.0123457
        k(  102) = (   0.6111111   0.1603751   0.0000000), wk =   0.0000000
        k(  103) = (  -0.4444444  -0.2566001   0.0000000), wk =   0.0123457
        k(  104) = (  -0.2222222   0.1283001   0.0000000), wk =   0.0000000
        k(  105) = (   0.4444444  -0.2566001   0.0000000), wk =   0.0123457
        k(  106) = (   0.6666667   0.1283001   0.0000000), wk =   0.0000000
        k(  107) = (  -0.5000000   0.2886751   0.0000000), wk =   0.0061728
        k(  108) = (  -0.2777778   0.6735753   0.0000000), wk =   0.0000000
        k(  109) = (  -0.1111111  -0.0000000   0.0000000), wk =   0.0123457
        k(  110) = (   0.1111111   0.3849002   0.0000000), wk =   0.0000000
        k(  111) = (  -0.0555556  -0.0962250   0.0000000), wk =   0.0061728
        k(  112) = (   0.1666667   0.2886751   0.0000000), wk =   0.0000000
        k(  113) = (  -0.0555556   0.0962250   0.0000000), wk =   0.0123457
        k(  114) = (   0.1666667   0.4811252   0.0000000), wk =   0.0000000
        k(  115) = (  -0.1666667  -0.0320750   0.0000000), wk =   0.0123457
        k(  116) = (   0.0555556   0.3528252   0.0000000), wk =   0.0000000
        k(  117) = (   0.1111111  -0.1283001   0.0000000), wk =   0.0123457
        k(  118) = (   0.3333333   0.2566001   0.0000000), wk =   0.0000000
        k(  119) = (  -0.0555556  -0.1603751   0.0000000), wk =   0.0123457
        k(  120) = (   0.1666667   0.2245251   0.0000000), wk =   0.0000000
        k(  121) = (  -0.0555556   0.1603751   0.0000000), wk =   0.0123457
        k(  122) = (   0.1666667   0.5452753   0.0000000), wk =   0.0000000
        k(  123) = (  -0.1111111   0.1283001   0.0000000), wk =   0.0123457
        k(  124) = (   0.1111111   0.5132002   0.0000000), wk =   0.0000000
        k(  125) = (  -0.2222222  -0.0641500   0.0000000), wk =   0.0123457
        k(  126) = (   0.0000000   0.3207501   0.0000000), wk =   0.0000000
        k(  127) = (   0.1666667  -0.1603751   0.0000000), wk =   0.0123457
        k(  128) = (   0.3888889   0.2245251   0.0000000), wk =   0.0000000
        k(  129) = (  -0.0555556  -0.2245251   0.0000000), wk =   0.0123457
        k(  130) = (   0.1666667   0.1603751   0.0000000), wk =   0.0000000
        k(  131) = (  -0.0555556   0.2245251   0.0000000), wk =   0.0123457
        k(  132) = (   0.1666667   0.6094253   0.0000000), wk =   0.0000000
        k(  133) = (  -0.1666667   0.1603751   0.0000000), wk =   0.0123457
        k(  134) = (   0.0555556   0.5452753   0.0000000), wk =   0.0000000
        k(  135) = (  -0.2777778  -0.0962250   0.0000000), wk =   0.0123457
        k(  136) = (  -0.0555556   0.2886751   0.0000000), wk =   0.0000000
        k(  137) = (   0.2222222  -0.1924501   0.0000000), wk =   0.0123457
        k(  138) = (   0.4444444   0.1924501   0.0000000), wk =   0.0000000
        k(  139) = (  -0.0555556  -0.2886751   0.0000000), wk =   0.0123457
        k(  140) = (   0.1666667   0.0962250   0.0000000), wk =   0.0000000
        k(  141) = (  -0.0555556   0.2886751   0.0000000), wk =   0.0123457
        k(  142) = (   0.1666667   0.6735753   0.0000000), wk =   0.0000000
        k(  143) = (  -0.2222222   0.1924501   0.0000000), wk =   0.0123457
        k(  144) = (   0.0000000   0.5773503   0.0000000), wk =   0.0000000
        k(  145) = (  -0.3333333  -0.1283001   0.0000000), wk =   0.0123457
        k(  146) = (  -0.1111111   0.2566001   0.0000000), wk =   0.0000000
        k(  147) = (   0.2777778  -0.2245251   0.0000000), wk =   0.0123457
        k(  148) = (   0.5000000   0.1603751   0.0000000), wk =   0.0000000
        k(  149) = (  -0.0555556  -0.3528252   0.0000000), wk =   0.0123457
        k(  150) = (   0.1666667   0.0320750   0.0000000), wk =   0.0000000
        k(  151) = (  -0.0555556   0.3528252   0.0000000), wk =   0.0123457
        k(  152) = (   0.1666667   0.7377253   0.0000000), wk =   0.0000000
        k(  153) = (  -0.2777778   0.2245251   0.0000000), wk =   0.0123457
        k(  154) = (  -0.0555556   0.6094253   0.0000000), wk =   0.0000000
        k(  155) = (  -0.3888889  -0.1603751   0.0000000), wk =   0.0123457
        k(  156) = (  -0.1666667   0.2245251   0.0000000), wk =   0.0000000
        k(  157) = (   0.3333333  -0.2566001   0.0000000), wk =   0.0123457
        k(  158) = (   0.5555556   0.1283001   0.0000000), wk =   0.0000000
        k(  159) = (  -0.0555556  -0.4169752   0.0000000), wk =   0.0123457
        k(  160) = (   0.1666667  -0.0320750   0.0000000), wk =   0.0000000
        k(  161) = (  -0.0555556   0.4169752   0.0000000), wk =   0.0123457
        k(  162) = (   0.1666667   0.8018754   0.0000000), wk =   0.0000000
        k(  163) = (  -0.3333333   0.2566001   0.0000000), wk =   0.0123457
        k(  164) = (  -0.1111111   0.6415003   0.0000000), wk =   0.0000000
        k(  165) = (  -0.4444444  -0.1924501   0.0000000), wk =   0.0123457
        k(  166) = (  -0.2222222   0.1924501   0.0000000), wk =   0.0000000
        k(  167) = (   0.3888889  -0.2886751   0.0000000), wk =   0.0123457
        k(  168) = (   0.6111111   0.0962250   0.0000000), wk =   0.0000000
        k(  169) = (  -0.0555556  -0.4811252   0.0000000), wk =   0.0123457
        k(  170) = (   0.1666667  -0.0962250   0.0000000), wk =   0.0000000
        k(  171) = (  -0.0555556   0.4811252   0.0000000), wk =   0.0123457
        k(  172) = (   0.1666667   0.8660254   0.0000000), wk =   0.0000000
        k(  173) = (  -0.3888889   0.2886751   0.0000000), wk =   0.0123457
        k(  174) = (  -0.1666667   0.6735753   0.0000000), wk =   0.0000000
        k(  175) = (  -0.5000000  -0.2245251   0.0000000), wk =   0.0123457
        k(  176) = (  -0.2777778   0.1603751   0.0000000), wk =   0.0000000
        k(  177) = (   0.4444444  -0.3207501   0.0000000), wk =   0.0123457
        k(  178) = (   0.6666667   0.0641500   0.0000000), wk =   0.0000000
        k(  179) = (  -0.0555556  -0.5452753   0.0000000), wk =   0.0123457
        k(  180) = (   0.1666667  -0.1603751   0.0000000), wk =   0.0000000
        k(  181) = (  -0.0555556   0.5452753   0.0000000), wk =   0.0123457
        k(  182) = (   0.1666667   0.9301754   0.0000000), wk =   0.0000000
        k(  183) = (  -0.4444444   0.3207501   0.0000000), wk =   0.0123457
        k(  184) = (  -0.2222222   0.7056503   0.0000000), wk =   0.0000000
        k(  185) = (  -0.2222222  -0.0000000   0.0000000), wk =   0.0123457
        k(  186) = (   0.0000000   0.3849002   0.0000000), wk =   0.0000000
        k(  187) = (  -0.1111111  -0.1924501   0.0000000), wk =   0.0061728
        k(  188) = (   0.1111111   0.1924501   0.0000000), wk =   0.0000000
        k(  189) = (  -0.1111111   0.1924501   0.0000000), wk =   0.0123457
        k(  190) = (   0.1111111   0.5773503   0.0000000), wk =   0.0000000
        k(  191) = (  -0.2777778  -0.0320750   0.0000000), wk =   0.0123457
        k(  192) = (  -0.0555556   0.3528252   0.0000000), wk =   0.0000000
        k(  193) = (   0.1666667  -0.2245251   0.0000000), wk =   0.0123457
        k(  194) = (   0.3888889   0.1603751   0.0000000), wk =   0.0000000
        k(  195) = (  -0.1111111  -0.2566001   0.0000000), wk =   0.0123457
        k(  196) = (   0.1111111   0.1283001   0.0000000), wk =   0.0000000
        k(  197) = (  -0.1111111   0.2566001   0.0000000), wk =   0.0123457
        k(  198) = (   0.1111111   0.6415003   0.0000000), wk =   0.0000000
        k(  199) = (  -0.1666667   0.2245251   0.0000000), wk =   0.0123457
        k(  200) = (   0.0555556   0.6094253   0.0000000), wk =   0.0000000
        k(  201) = (  -0.3333333  -0.0641500   0.0000000), wk =   0.0123457
        k(  202) = (  -0.1111111   0.3207501   0.0000000), wk =   0.0000000
        k(  203) = (   0.2222222  -0.2566001   0.0000000), wk =   0.0123457
        k(  204) = (   0.4444444   0.1283001   0.0000000), wk =   0.0000000
        k(  205) = (  -0.1111111  -0.3207501   0.0000000), wk =   0.0123457
        k(  206) = (   0.1111111   0.0641500   0.0000000), wk =   0.0000000
        k(  207) = (  -0.1111111   0.3207501   0.0000000), wk =   0.0123457
        k(  208) = (   0.1111111   0.7056503   0.0000000), wk =   0.0000000
        k(  209) = (  -0.2222222   0.2566001   0.0000000), wk =   0.0123457
        k(  210) = (   0.0000000   0.6415003   0.0000000), wk =   0.0000000
        k(  211) = (  -0.3888889  -0.0962250   0.0000000), wk =   0.0123457
        k(  212) = (  -0.1666667   0.2886751   0.0000000), wk =   0.0000000
        k(  213) = (   0.2777778  -0.2886751   0.0000000), wk =   0.0123457
        k(  214) = (   0.5000000   0.0962250   0.0000000), wk =   0.0000000
        k(  215) = (  -0.1111111  -0.3849002   0.0000000), wk =   0.0123457
        k(  216) = (   0.1111111   0.0000000   0.0000000), wk =   0.0000000
        k(  217) = (  -0.1111111   0.3849002   0.0000000), wk =   0.0123457
        k(  218) = (   0.1111111   0.7698004   0.0000000), wk =   0.0000000
        k(  219) = (  -0.2777778   0.2886751   0.0000000), wk =   0.0123457
        k(  220) = (  -0.0555556   0.6735753   0.0000000), wk =   0.0000000
        k(  221) = (  -0.4444444  -0.1283001   0.0000000), wk =   0.0123457
        k(  222) = (  -0.2222222   0.2566001   0.0000000), wk =   0.0000000
        k(  223) = (   0.3333333  -0.3207501   0.0000000), wk =   0.0123457
        k(  224) = (   0.5555556   0.0641500   0.0000000), wk =   0.0000000
        k(  225) = (  -0.1111111  -0.4490502   0.0000000), wk =   0.0123457
        k(  226) = (   0.1111111  -0.0641500   0.0000000), wk =   0.0000000
        k(  227) = (  -0.1111111   0.4490502   0.0000000), wk =   0.0123457
        k(  228) = (   0.1111111   0.8339504   0.0000000), wk =   0.0000000
        k(  229) = (  -0.3333333   0.3207501   0.0000000), wk =   0.0123457
        k(  230) = (  -0.1111111   0.7056503   0.0000000), wk =   0.0000000
        k(  231) = (  -0.5000000  -0.1603751   0.0000000), wk =   0.0123457
        k(  232) = (  -0.2777778   0.2245251   0.0000000), wk =   0.0000000
        k(  233) = (   0.3888889  -0.3528252   0.0000000), wk =   0.0123457
        k(  234) = (   0.6111111   0.0320750   0.0000000), wk =   0.0000000
        k(  235) = (  -0.1111111  -0.5132002   0.0000000), wk =   0.0123457
        k(  236) = (   0.1111111  -0.1283001   0.0000000), wk =   0.0000000
        k(  237) = (  -0.1111111   0.5132002   0.0000000), wk =   0.0123457
        k(  238) = (   0.1111111   0.8981004   0.0000000), wk =   0.0000000
        k(  239) = (  -0.3888889   0.3528252   0.0000000), wk =   0.0123457
        k(  240) = (  -0.1666667   0.7377253   0.0000000), wk =   0.0000000
        k(  241) = (   0.4444444  -0.3849002   0.0000000), wk =   0.0061728
        k(  242) = (   0.6666667   0.0000000   0.0000000), wk =   0.0000000
        k(  243) = (  -0.1111111  -0.5773503   0.0000000), wk =   0.0123457
        k(  244) = (   0.1111111  -0.1924501   0.0000000), wk =   0.0000000
        k(  245) = (  -0.4444444   0.3849002   0.0000000), wk =   0.0061728
        k(  246) = (  -0.2222222   0.7698004   0.0000000), wk =   0.0000000
        k(  247) = (  -0.3333333  -0.0000000   0.0000000), wk =   0.0123457
        k(  248) = (  -0.1111111   0.3849002   0.0000000), wk =   0.0000000
        k(  249) = (  -0.1666667  -0.2886751   0.0000000), wk =   0.0061728
        k(  250) = (   0.0555556   0.0962250   0.0000000), wk =   0.0000000
        k(  251) = (  -0.1666667   0.2886751   0.0000000), wk =   0.0123457
        k(  252) = (   0.0555556   0.6735753   0.0000000), wk =   0.0000000
        k(  253) = (  -0.3888889  -0.0320750   0.0000000), wk =   0.0123457
        k(  254) = (  -0.1666667   0.3528252   0.0000000), wk =   0.0000000
        k(  255) = (   0.2222222  -0.3207501   0.0000000), wk =   0.0123457
        k(  256) = (   0.4444444   0.0641500   0.0000000), wk =   0.0000000
        k(  257) = (  -0.1666667  -0.3528252   0.0000000), wk =   0.0123457
        k(  258) = (   0.0555556   0.0320750   0.0000000), wk =   0.0000000
        k(  259) = (  -0.1666667   0.3528252   0.0000000), wk =   0.0123457
        k(  260) = (   0.0555556   0.7377253   0.0000000), wk =   0.0000000
        k(  261) = (  -0.2222222   0.3207501   0.0000000), wk =   0.0123457
        k(  262) = (  -0.0000000   0.7056503   0.0000000), wk =   0.0000000
        k(  263) = (  -0.4444444  -0.0641500   0.0000000), wk =   0.0123457
        k(  264) = (  -0.2222222   0.3207501   0.0000000), wk =   0.0000000
        k(  265) = (   0.2777778  -0.3528252   0.0000000), wk =   0.0123457
        k(  266) = (   0.5000000   0.0320750   0.0000000), wk =   0.0000000
        k(  267) = (  -0.1666667  -0.4169752   0.0000000), wk =   0.0123457
        k(  268) = (   0.0555556  -0.0320750   0.0000000), wk =   0.0000000
        k(  269) = (  -0.1666667   0.4169752   0.0000000), wk =   0.0123457
        k(  270) = (   0.0555556   0.8018754   0.0000000), wk =   0.0000000
        k(  271) = (  -0.2777778   0.3528252   0.0000000), wk =   0.0123457
        k(  272) = (  -0.0555556   0.7377253   0.0000000), wk =   0.0000000
        k(  273) = (  -0.5000000  -0.0962250   0.0000000), wk =   0.0123457
        k(  274) = (  -0.2777778   0.2886751   0.0000000), wk =   0.0000000
        k(  275) = (   0.3333333  -0.3849002   0.0000000), wk =   0.0123457
        k(  276) = (   0.5555556   0.0000000   0.0000000), wk =   0.0000000
        k(  277) = (  -0.1666667  -0.4811252   0.0000000), wk =   0.0123457
        k(  278) = (   0.0555556  -0.0962250   0.0000000), wk =   0.0000000
        k(  279) = (  -0.1666667   0.4811252   0.0000000), wk =   0.0123457
        k(  280) = (   0.0555556   0.8660254   0.0000000), wk =   0.0000000
        k(  281) = (  -0.3333333   0.3849002   0.0000000), wk =   0.0123457
        k(  282) = (  -0.1111111   0.7698004   0.0000000), wk =   0.0000000
        k(  283) = (  -0.5555556  -0.1283001   0.0000000), wk =   0.0123457
        k(  284) = (  -0.3333333   0.2566001   0.0000000), wk =   0.0000000
        k(  285) = (   0.3888889  -0.4169752   0.0000000), wk =   0.0123457
        k(  286) = (   0.6111111  -0.0320750   0.0000000), wk =   0.0000000
        k(  287) = (  -0.1666667  -0.5452753   0.0000000), wk =   0.0123457
        k(  288) = (   0.0555556  -0.1603751   0.0000000), wk =   0.0000000
        k(  289) = (  -0.1666667   0.5452753   0.0000000), wk =   0.0123457
        k(  290) = (   0.0555556   0.9301754   0.0000000), wk =   0.0000000
        k(  291) = (  -0.3888889   0.4169752   0.0000000), wk =   0.0123457
        k(  292) = (  -0.1666667   0.8018754   0.0000000), wk =   0.0000000
        k(  293) = (  -0.4444444  -0.0000000   0.0000000), wk =   0.0123457
        k(  294) = (  -0.2222222   0.3849002   0.0000000), wk =   0.0000000
        k(  295) = (  -0.2222222  -0.3849002   0.0000000), wk =   0.0061728
        k(  296) = (   0.0000000  -0.0000000   0.0000000), wk =   0.0000000
        k(  297) = (  -0.2222222   0.3849002   0.0000000), wk =   0.0123457
        k(  298) = (   0.0000000   0.7698004   0.0000000), wk =   0.0000000
        k(  299) = (  -0.5000000  -0.0320750   0.0000000), wk =   0.0123457
        k(  300) = (  -0.2777778   0.3528252   0.0000000), wk =   0.0000000
        k(  301) = (   0.2777778  -0.4169752   0.0000000), wk =   0.0123457
        k(  302) = (   0.5000000  -0.0320750   0.0000000), wk =   0.0000000
        k(  303) = (  -0.2222222  -0.4490502   0.0000000), wk =   0.0123457
        k(  304) = (   0.0000000  -0.0641500   0.0000000), wk =   0.0000000
        k(  305) = (  -0.2222222   0.4490502   0.0000000), wk =   0.0123457
        k(  306) = (   0.0000000   0.8339504   0.0000000), wk =   0.0000000
        k(  307) = (  -0.2777778   0.4169752   0.0000000), wk =   0.0123457
        k(  308) = (  -0.0555556   0.8018754   0.0000000), wk =   0.0000000
        k(  309) = (  -0.5555556  -0.0641500   0.0000000), wk =   0.0123457
        k(  310) = (  -0.3333333   0.3207501   0.0000000), wk =   0.0000000
        k(  311) = (   0.3333333  -0.4490502   0.0000000), wk =   0.0123457
        k(  312) = (   0.5555556  -0.0641500   0.0000000), wk =   0.0000000
        k(  313) = (  -0.2222222  -0.5132002   0.0000000), wk =   0.0123457
        k(  314) = (   0.0000000  -0.1283001   0.0000000), wk =   0.0000000
        k(  315) = (  -0.2222222   0.5132002   0.0000000), wk =   0.0123457
        k(  316) = (   0.0000000   0.8981004   0.0000000), wk =   0.0000000
        k(  317) = (  -0.3333333   0.4490502   0.0000000), wk =   0.0123457
        k(  318) = (  -0.1111111   0.8339504   0.0000000), wk =   0.0000000
        k(  319) = (   0.3888889  -0.4811252   0.0000000), wk =   0.0061728
        k(  320) = (   0.6111111  -0.0962250   0.0000000), wk =   0.0000000
        k(  321) = (  -0.2222222  -0.5773503   0.0000000), wk =   0.0123457
        k(  322) = (   0.0000000  -0.1924501   0.0000000), wk =   0.0000000
        k(  323) = (  -0.3888889   0.4811252   0.0000000), wk =   0.0061728
        k(  324) = (  -0.1666667   0.8660254   0.0000000), wk =   0.0000000
        k(  325) = (  -0.5555556  -0.0000000   0.0000000), wk =   0.0123457
        k(  326) = (  -0.3333333   0.3849002   0.0000000), wk =   0.0000000
        k(  327) = (  -0.2777778  -0.4811252   0.0000000), wk =   0.0061728
        k(  328) = (  -0.0555556  -0.0962250   0.0000000), wk =   0.0000000
        k(  329) = (  -0.2777778   0.4811252   0.0000000), wk =   0.0123457
        k(  330) = (  -0.0555556   0.8660254   0.0000000), wk =   0.0000000
        k(  331) = (  -0.6111111  -0.0320750   0.0000000), wk =   0.0123457
        k(  332) = (  -0.3888889   0.3528252   0.0000000), wk =   0.0000000
        k(  333) = (   0.3333333  -0.5132002   0.0000000), wk =   0.0123457
        k(  334) = (   0.5555556  -0.1283001   0.0000000), wk =   0.0000000
        k(  335) = (  -0.2777778  -0.5452753   0.0000000), wk =   0.0123457
        k(  336) = (  -0.0555556  -0.1603751   0.0000000), wk =   0.0000000
        k(  337) = (  -0.2777778   0.5452753   0.0000000), wk =   0.0123457
        k(  338) = (  -0.0555556   0.9301754   0.0000000), wk =   0.0000000
        k(  339) = (  -0.3333333   0.5132002   0.0000000), wk =   0.0123457
        k(  340) = (  -0.1111111   0.8981004   0.0000000), wk =   0.0000000
        k(  341) = (  -0.3333333  -0.5773503   0.0000000), wk =   0.0061728
        k(  342) = (  -0.1111111  -0.1924501   0.0000000), wk =   0.0000000

                       cryst. coord.
        k(    1) = (   0.0000000   0.0000000   0.0000000), wk =   0.0061728
        k(    2) = (   0.2222222   0.2222222   0.0000000), wk =   0.0000000
        k(    3) = (   0.0000000   0.0555556   0.0000000), wk =   0.0123457
        k(    4) = (   0.2222222   0.2777778   0.0000000), wk =   0.0000000
        k(    5) = (   0.0000000   0.1111111   0.0000000), wk =   0.0123457
        k(    6) = (   0.2222222   0.3333333   0.0000000), wk =   0.0000000
        k(    7) = (   0.0000000   0.1666667   0.0000000), wk =   0.0123457
        k(    8) = (   0.2222222   0.3888889   0.0000000), wk =   0.0000000
        k(    9) = (   0.0000000   0.2222222   0.0000000), wk =   0.0123457
        k(   10) = (   0.2222222   0.4444444   0.0000000), wk =   0.0000000
        k(   11) = (   0.0000000   0.2777778   0.0000000), wk =   0.0123457
        k(   12) = (   0.2222222   0.5000000   0.0000000), wk =   0.0000000
        k(   13) = (   0.0000000   0.3333333   0.0000000), wk =   0.0123457
        k(   14) = (   0.2222222   0.5555556   0.0000000), wk =   0.0000000
        k(   15) = (   0.0000000   0.3888889   0.0000000), wk =   0.0123457
        k(   16) = (   0.2222222   0.6111111   0.0000000), wk =   0.0000000
        k(   17) = (   0.0000000   0.4444444   0.0000000), wk =   0.0123457
        k(   18) = (   0.2222222   0.6666667   0.0000000), wk =   0.0000000
        k(   19) = (   0.0000000  -0.5000000   0.0000000), wk =   0.0123457
        k(   20) = (   0.2222222  -0.2777778   0.0000000), wk =   0.0000000
        k(   21) = (   0.0555556   0.0555556   0.0000000), wk =   0.0061728
        k(   22) = (   0.2777778   0.2777778   0.0000000), wk =   0.0000000
        k(   23) = (   0.0555556   0.1111111   0.0000000), wk =   0.0123457
        k(   24) = (   0.2777778   0.3333333   0.0000000), wk =   0.0000000
        k(   25) = (   0.0555556   0.1666667   0.0000000), wk =   0.0123457
        k(   26) = (   0.2777778   0.3888889   0.0000000), wk =   0.0000000
        k(   27) = (   0.0555556   0.2222222   0.0000000), wk =   0.0123457
        k(   28) = (   0.2777778   0.4444444   0.0000000), wk =   0.0000000
        k(   29) = (   0.0555556   0.2777778   0.0000000), wk =   0.0123457
        k(   30) = (   0.2777778   0.5000000   0.0000000), wk =   0.0000000
        k(   31) = (   0.0555556   0.3333333   0.0000000), wk =   0.0123457
        k(   32) = (   0.2777778   0.5555556   0.0000000), wk =   0.0000000
        k(   33) = (   0.0555556   0.3888889   0.0000000), wk =   0.0123457
        k(   34) = (   0.2777778   0.6111111   0.0000000), wk =   0.0000000
        k(   35) = (   0.0555556   0.4444444   0.0000000), wk =   0.0123457
        k(   36) = (   0.2777778   0.6666667   0.0000000), wk =   0.0000000
        k(   37) = (   0.1111111   0.1111111   0.0000000), wk =   0.0061728
        k(   38) = (   0.3333333   0.3333333   0.0000000), wk =   0.0000000
        k(   39) = (   0.1111111   0.1666667   0.0000000), wk =   0.0123457
        k(   40) = (   0.3333333   0.3888889   0.0000000), wk =   0.0000000
        k(   41) = (   0.1111111   0.2222222   0.0000000), wk =   0.0123457
        k(   42) = (   0.3333333   0.4444444   0.0000000), wk =   0.0000000
        k(   43) = (   0.1111111   0.2777778   0.0000000), wk =   0.0123457
        k(   44) = (   0.3333333   0.5000000   0.0000000), wk =   0.0000000
        k(   45) = (   0.1111111   0.3333333   0.0000000), wk =   0.0123457
        k(   46) = (   0.3333333   0.5555556   0.0000000), wk =   0.0000000
        k(   47) = (   0.1111111   0.3888889   0.0000000), wk =   0.0123457
        k(   48) = (   0.3333333   0.6111111   0.0000000), wk =   0.0000000
        k(   49) = (   0.1111111   0.4444444   0.0000000), wk =   0.0123457
        k(   50) = (   0.3333333   0.6666667   0.0000000), wk =   0.0000000
        k(   51) = (   0.1666667   0.1666667   0.0000000), wk =   0.0061728
        k(   52) = (   0.3888889   0.3888889   0.0000000), wk =   0.0000000
        k(   53) = (   0.1666667   0.2222222   0.0000000), wk =   0.0123457
        k(   54) = (   0.3888889   0.4444444   0.0000000), wk =   0.0000000
        k(   55) = (   0.1666667   0.2777778   0.0000000), wk =   0.0123457
        k(   56) = (   0.3888889   0.5000000   0.0000000), wk =   0.0000000
        k(   57) = (   0.1666667   0.3333333   0.0000000), wk =   0.0123457
        k(   58) = (   0.3888889   0.5555556   0.0000000), wk =   0.0000000
        k(   59) = (   0.1666667   0.3888889   0.0000000), wk =   0.0123457
        k(   60) = (   0.3888889   0.6111111   0.0000000), wk =   0.0000000
        k(   61) = (   0.2222222   0.2222222   0.0000000), wk =   0.0061728
        k(   62) = (   0.4444444   0.4444444   0.0000000), wk =   0.0000000
        k(   63) = (   0.2222222   0.2777778   0.0000000), wk =   0.0123457
        k(   64) = (   0.4444444   0.5000000   0.0000000), wk =   0.0000000
        k(   65) = (   0.2222222   0.3333333   0.0000000), wk =   0.0123457
        k(   66) = (   0.4444444   0.5555556   0.0000000), wk =   0.0000000
        k(   67) = (   0.2222222   0.3888889   0.0000000), wk =   0.0123457
        k(   68) = (   0.4444444   0.6111111   0.0000000), wk =   0.0000000
        k(   69) = (   0.2777778   0.2777778   0.0000000), wk =   0.0061728
        k(   70) = (   0.5000000   0.5000000   0.0000000), wk =   0.0000000
        k(   71) = (   0.2777778   0.3333333   0.0000000), wk =   0.0123457
        k(   72) = (   0.5000000   0.5555556   0.0000000), wk =   0.0000000
        k(   73) = (   0.3333333   0.3333333   0.0000000), wk =   0.0061728
        k(   74) = (   0.5555556   0.5555556   0.0000000), wk =   0.0000000
        k(   75) = (  -0.0555556   0.0000000   0.0000000), wk =   0.0123457
        k(   76) = (   0.1666667   0.2222222   0.0000000), wk =   0.0000000
        k(   77) = (   0.0555556  -0.0555556   0.0000000), wk =   0.0123457
        k(   78) = (   0.2777778   0.1666667   0.0000000), wk =   0.0000000
        k(   79) = (  -0.1111111   0.0000000   0.0000000), wk =   0.0123457
        k(   80) = (   0.1111111   0.2222222   0.0000000), wk =   0.0000000
        k(   81) = (   0.1111111  -0.1111111   0.0000000), wk =   0.0123457
        k(   82) = (   0.3333333   0.1111111   0.0000000), wk =   0.0000000
        k(   83) = (  -0.1666667   0.0000000   0.0000000), wk =   0.0123457
        k(   84) = (   0.0555556   0.2222222   0.0000000), wk =   0.0000000
        k(   85) = (   0.1666667  -0.1666667   0.0000000), wk =   0.0123457
        k(   86) = (   0.3888889   0.0555556   0.0000000), wk =   0.0000000
        k(   87) = (  -0.2222222   0.0000000   0.0000000), wk =   0.0123457
        k(   88) = (   0.0000000   0.2222222   0.0000000), wk =   0.0000000
        k(   89) = (   0.2222222  -0.2222222   0.0000000), wk =   0.0123457
        k(   90) = (   0.4444444  -0.0000000   0.0000000), wk =   0.0000000
        k(   91) = (  -0.2777778   0.0000000   0.0000000), wk =   0.0123457
        k(   92) = (  -0.0555556   0.2222222   0.0000000), wk =   0.0000000
        k(   93) = (   0.2777778  -0.2777778   0.0000000), wk =   0.0123457
        k(   94) = (   0.5000000  -0.0555556   0.0000000), wk =   0.0000000
        k(   95) = (  -0.3333333   0.0000000   0.0000000), wk =   0.0123457
        k(   96) = (  -0.1111111   0.2222222   0.0000000), wk =   0.0000000
        k(   97) = (   0.3333333  -0.3333333   0.0000000), wk =   0.0123457
        k(   98) = (   0.5555556  -0.1111111   0.0000000), wk =   0.0000000
        k(   99) = (  -0.3888889  -0.0000000   0.0000000), wk =   0.0123457
        k(  100) = (  -0.1666667   0.2222222   0.0000000), wk =   0.0000000
        k(  101) = (   0.3888889  -0.3888889   0.0000000), wk =   0.0123457
        k(  102) = (   0.6111111  -0.1666667   0.0000000), wk =   0.0000000
        k(  103) = (  -0.4444444   0.0000000   0.0000000), wk =   0.0123457
        k(  104) = (  -0.2222222   0.2222222   0.0000000), wk =   0.0000000
        k(  105) = (   0.4444444  -0.4444444   0.0000000), wk =   0.0123457
        k(  106) = (   0.6666667  -0.2222222   0.0000000), wk =   0.0000000
        k(  107) = (  -0.5000000   0.5000000   0.0000000), wk =   0.0061728
        k(  108) = (  -0.2777778   0.7222222   0.0000000), wk =   0.0000000
        k(  109) = (  -0.1111111   0.0555556   0.0000000), wk =   0.0123457
        k(  110) = (   0.1111111   0.2777778   0.0000000), wk =   0.0000000
        k(  111) = (  -0.0555556  -0.0555556   0.0000000), wk =   0.0061728
        k(  112) = (   0.1666667   0.1666667   0.0000000), wk =   0.0000000
        k(  113) = (  -0.0555556   0.1111111   0.0000000), wk =   0.0123457
        k(  114) = (   0.1666667   0.3333333   0.0000000), wk =   0.0000000
        k(  115) = (  -0.1666667   0.0555556   0.0000000), wk =   0.0123457
        k(  116) = (   0.0555556   0.2777778   0.0000000), wk =   0.0000000
        k(  117) = (   0.1111111  -0.1666667   0.0000000), wk =   0.0123457
        k(  118) = (   0.3333333   0.0555556   0.0000000), wk =   0.0000000
        k(  119) = (  -0.0555556  -0.1111111   0.0000000), wk =   0.0123457
        k(  120) = (   0.1666667   0.1111111   0.0000000), wk =   0.0000000
        k(  121) = (  -0.0555556   0.1666667   0.0000000), wk =   0.0123457
        k(  122) = (   0.1666667   0.3888889   0.0000000), wk =   0.0000000
        k(  123) = (  -0.1111111   0.1666667   0.0000000), wk =   0.0123457
        k(  124) = (   0.1111111   0.3888889   0.0000000), wk =   0.0000000
        k(  125) = (  -0.2222222   0.0555556   0.0000000), wk =   0.0123457
        k(  126) = (   0.0000000   0.2777778   0.0000000), wk =   0.0000000
        k(  127) = (   0.1666667  -0.2222222   0.0000000), wk =   0.0123457
        k(  128) = (   0.3888889  -0.0000000   0.0000000), wk =   0.0000000
        k(  129) = (  -0.0555556  -0.1666667   0.0000000), wk =   0.0123457
        k(  130) = (   0.1666667   0.0555556   0.0000000), wk =   0.0000000
        k(  131) = (  -0.0555556   0.2222222   0.0000000), wk =   0.0123457
        k(  132) = (   0.1666667   0.4444444   0.0000000), wk =   0.0000000
        k(  133) = (  -0.1666667   0.2222222   0.0000000), wk =   0.0123457
        k(  134) = (   0.0555556   0.4444444   0.0000000), wk =   0.0000000
        k(  135) = (  -0.2777778   0.0555556   0.0000000), wk =   0.0123457
        k(  136) = (  -0.0555556   0.2777778   0.0000000), wk =   0.0000000
        k(  137) = (   0.2222222  -0.2777778   0.0000000), wk =   0.0123457
        k(  138) = (   0.4444444  -0.0555556   0.0000000), wk =   0.0000000
        k(  139) = (  -0.0555556  -0.2222222   0.0000000), wk =   0.0123457
        k(  140) = (   0.1666667  -0.0000000   0.0000000), wk =   0.0000000
        k(  141) = (  -0.0555556   0.2777778   0.0000000), wk =   0.0123457
        k(  142) = (   0.1666667   0.5000000   0.0000000), wk =   0.0000000
        k(  143) = (  -0.2222222   0.2777778   0.0000000), wk =   0.0123457
        k(  144) = (   0.0000000   0.5000000   0.0000000), wk =   0.0000000
        k(  145) = (  -0.3333333   0.0555556   0.0000000), wk =   0.0123457
        k(  146) = (  -0.1111111   0.2777778   0.0000000), wk =   0.0000000
        k(  147) = (   0.2777778  -0.3333333   0.0000000), wk =   0.0123457
        k(  148) = (   0.5000000  -0.1111111   0.0000000), wk =   0.0000000
        k(  149) = (  -0.0555556  -0.2777778   0.0000000), wk =   0.0123457
        k(  150) = (   0.1666667  -0.0555556   0.0000000), wk =   0.0000000
        k(  151) = (  -0.0555556   0.3333333   0.0000000), wk =   0.0123457
        k(  152) = (   0.1666667   0.5555556   0.0000000), wk =   0.0000000
        k(  153) = (  -0.2777778   0.3333333   0.0000000), wk =   0.0123457
        k(  154) = (  -0.0555556   0.5555556   0.0000000), wk =   0.0000000
        k(  155) = (  -0.3888889   0.0555556   0.0000000), wk =   0.0123457
        k(  156) = (  -0.1666667   0.2777778   0.0000000), wk =   0.0000000
        k(  157) = (   0.3333333  -0.3888889   0.0000000), wk =   0.0123457
        k(  158) = (   0.5555556  -0.1666667   0.0000000), wk =   0.0000000
        k(  159) = (  -0.0555556  -0.3333333   0.0000000), wk =   0.0123457
        k(  160) = (   0.1666667  -0.1111111   0.0000000), wk =   0.0000000
        k(  161) = (  -0.0555556   0.3888889   0.0000000), wk =   0.0123457
        k(  162) = (   0.1666667   0.6111111   0.0000000), wk =   0.0000000
        k(  163) = (  -0.3333333   0.3888889   0.0000000), wk =   0.0123457
        k(  164) = (  -0.1111111   0.6111111   0.0000000), wk =   0.0000000
        k(  165) = (  -0.4444444   0.0555556   0.0000000), wk =   0.0123457
        k(  166) = (  -0.2222222   0.2777778   0.0000000), wk =   0.0000000
        k(  167) = (   0.3888889  -0.4444444   0.0000000), wk =   0.0123457
        k(  168) = (   0.6111111  -0.2222222   0.0000000), wk =   0.0000000
        k(  169) = (  -0.0555556  -0.3888889   0.0000000), wk =   0.0123457
        k(  170) = (   0.1666667  -0.1666667   0.0000000), wk =   0.0000000
        k(  171) = (  -0.0555556   0.4444444   0.0000000), wk =   0.0123457
        k(  172) = (   0.1666667   0.6666667   0.0000000), wk =   0.0000000
        k(  173) = (  -0.3888889   0.4444444   0.0000000), wk =   0.0123457
        k(  174) = (  -0.1666667   0.6666667   0.0000000), wk =   0.0000000
        k(  175) = (  -0.5000000   0.0555556   0.0000000), wk =   0.0123457
        k(  176) = (  -0.2777778   0.2777778   0.0000000), wk =   0.0000000
        k(  177) = (   0.4444444  -0.5000000   0.0000000), wk =   0.0123457
        k(  178) = (   0.6666667  -0.2777778   0.0000000), wk =   0.0000000
        k(  179) = (  -0.0555556  -0.4444444   0.0000000), wk =   0.0123457
        k(  180) = (   0.1666667  -0.2222222   0.0000000), wk =   0.0000000
        k(  181) = (  -0.0555556   0.5000000   0.0000000), wk =   0.0123457
        k(  182) = (   0.1666667   0.7222222   0.0000000), wk =   0.0000000
        k(  183) = (  -0.4444444   0.5000000   0.0000000), wk =   0.0123457
        k(  184) = (  -0.2222222   0.7222222   0.0000000), wk =   0.0000000
        k(  185) = (  -0.2222222   0.1111111   0.0000000), wk =   0.0123457
        k(  186) = (   0.0000000   0.3333333   0.0000000), wk =   0.0000000
        k(  187) = (  -0.1111111  -0.1111111   0.0000000), wk =   0.0061728
        k(  188) = (   0.1111111   0.1111111   0.0000000), wk =   0.0000000
        k(  189) = (  -0.1111111   0.2222222   0.0000000), wk =   0.0123457
        k(  190) = (   0.1111111   0.4444444   0.0000000), wk =   0.0000000
        k(  191) = (  -0.2777778   0.1111111   0.0000000), wk =   0.0123457
        k(  192) = (  -0.0555556   0.3333333   0.0000000), wk =   0.0000000
        k(  193) = (   0.1666667  -0.2777778   0.0000000), wk =   0.0123457
        k(  194) = (   0.3888889  -0.0555556   0.0000000), wk =   0.0000000
        k(  195) = (  -0.1111111  -0.1666667   0.0000000), wk =   0.0123457
        k(  196) = (   0.1111111   0.0555556   0.0000000), wk =   0.0000000
        k(  197) = (  -0.1111111   0.2777778   0.0000000), wk =   0.0123457
        k(  198) = (   0.1111111   0.5000000   0.0000000), wk =   0.0000000
        k(  199) = (  -0.1666667   0.2777778   0.0000000), wk =   0.0123457
        k(  200) = (   0.0555556   0.5000000   0.0000000), wk =   0.0000000
        k(  201) = (  -0.3333333   0.1111111   0.0000000), wk =   0.0123457
        k(  202) = (  -0.1111111   0.3333333   0.0000000), wk =   0.0000000
        k(  203) = (   0.2222222  -0.3333333   0.0000000), wk =   0.0123457
        k(  204) = (   0.4444444  -0.1111111   0.0000000), wk =   0.0000000
        k(  205) = (  -0.1111111  -0.2222222   0.0000000), wk =   0.0123457
        k(  206) = (   0.1111111  -0.0000000   0.0000000), wk =   0.0000000
        k(  207) = (  -0.1111111   0.3333333   0.0000000), wk =   0.0123457
        k(  208) = (   0.1111111   0.5555556   0.0000000), wk =   0.0000000
        k(  209) = (  -0.2222222   0.3333333   0.0000000), wk =   0.0123457
        k(  210) = (   0.0000000   0.5555556   0.0000000), wk =   0.0000000
        k(  211) = (  -0.3888889   0.1111111   0.0000000), wk =   0.0123457
        k(  212) = (  -0.1666667   0.3333333   0.0000000), wk =   0.0000000
        k(  213) = (   0.2777778  -0.3888889   0.0000000), wk =   0.0123457
        k(  214) = (   0.5000000  -0.1666667   0.0000000), wk =   0.0000000
        k(  215) = (  -0.1111111  -0.2777778   0.0000000), wk =   0.0123457
        k(  216) = (   0.1111111  -0.0555556   0.0000000), wk =   0.0000000
        k(  217) = (  -0.1111111   0.3888889   0.0000000), wk =   0.0123457
        k(  218) = (   0.1111111   0.6111111   0.0000000), wk =   0.0000000
        k(  219) = (  -0.2777778   0.3888889   0.0000000), wk =   0.0123457
        k(  220) = (  -0.0555556   0.6111111   0.0000000), wk =   0.0000000
        k(  221) = (  -0.4444444   0.1111111   0.0000000), wk =   0.0123457
        k(  222) = (  -0.2222222   0.3333333   0.0000000), wk =   0.0000000
        k(  223) = (   0.3333333  -0.4444444   0.0000000), wk =   0.0123457
        k(  224) = (   0.5555556  -0.2222222   0.0000000), wk =   0.0000000
        k(  225) = (  -0.1111111  -0.3333333   0.0000000), wk =   0.0123457
        k(  226) = (   0.1111111  -0.1111111   0.0000000), wk =   0.0000000
        k(  227) = (  -0.1111111   0.4444444   0.0000000), wk =   0.0123457
        k(  228) = (   0.1111111   0.6666667   0.0000000), wk =   0.0000000
        k(  229) = (  -0.3333333   0.4444444   0.0000000), wk =   0.0123457
        k(  230) = (  -0.1111111   0.6666667   0.0000000), wk =   0.0000000
        k(  231) = (  -0.5000000   0.1111111   0.0000000), wk =   0.0123457
        k(  232) = (  -0.2777778   0.3333333   0.0000000), wk =   0.0000000
        k(  233) = (   0.3888889  -0.5000000   0.0000000), wk =   0.0123457
        k(  234) = (   0.6111111  -0.2777778   0.0000000), wk =   0.0000000
        k(  235) = (  -0.1111111  -0.3888889   0.0000000), wk =   0.0123457
        k(  236) = (   0.1111111  -0.1666667   0.0000000), wk =   0.0000000
        k(  237) = (  -0.1111111   0.5000000   0.0000000), wk =   0.0123457
        k(  238) = (   0.1111111   0.7222222   0.0000000), wk =   0.0000000
        k(  239) = (  -0.3888889   0.5000000   0.0000000), wk =   0.0123457
        k(  240) = (  -0.1666667   0.7222222   0.0000000), wk =   0.0000000
        k(  241) = (   0.4444444  -0.5555556   0.0000000), wk =   0.0061728
        k(  242) = (   0.6666667  -0.3333333   0.0000000), wk =   0.0000000
        k(  243) = (  -0.1111111  -0.4444444   0.0000000), wk =   0.0123457
        k(  244) = (   0.1111111  -0.2222222   0.0000000), wk =   0.0000000
        k(  245) = (  -0.4444444   0.5555556   0.0000000), wk =   0.0061728
        k(  246) = (  -0.2222222   0.7777778   0.0000000), wk =   0.0000000
        k(  247) = (  -0.3333333   0.1666667   0.0000000), wk =   0.0123457
        k(  248) = (  -0.1111111   0.3888889   0.0000000), wk =   0.0000000
        k(  249) = (  -0.1666667  -0.1666667   0.0000000), wk =   0.0061728
        k(  250) = (   0.0555556   0.0555556   0.0000000), wk =   0.0000000
        k(  251) = (  -0.1666667   0.3333333   0.0000000), wk =   0.0123457
        k(  252) = (   0.0555556   0.5555556   0.0000000), wk =   0.0000000
        k(  253) = (  -0.3888889   0.1666667   0.0000000), wk =   0.0123457
        k(  254) = (  -0.1666667   0.3888889   0.0000000), wk =   0.0000000
        k(  255) = (   0.2222222  -0.3888889   0.0000000), wk =   0.0123457
        k(  256) = (   0.4444444  -0.1666667   0.0000000), wk =   0.0000000
        k(  257) = (  -0.1666667  -0.2222222   0.0000000), wk =   0.0123457
        k(  258) = (   0.0555556  -0.0000000   0.0000000), wk =   0.0000000
        k(  259) = (  -0.1666667   0.3888889   0.0000000), wk =   0.0123457
        k(  260) = (   0.0555556   0.6111111   0.0000000), wk =   0.0000000
        k(  261) = (  -0.2222222   0.3888889   0.0000000), wk =   0.0123457
        k(  262) = (  -0.0000000   0.6111111   0.0000000), wk =   0.0000000
        k(  263) = (  -0.4444444   0.1666667   0.0000000), wk =   0.0123457
        k(  264) = (  -0.2222222   0.3888889   0.0000000), wk =   0.0000000
        k(  265) = (   0.2777778  -0.4444444   0.0000000), wk =   0.0123457
        k(  266) = (   0.5000000  -0.2222222   0.0000000), wk =   0.0000000
        k(  267) = (  -0.1666667  -0.2777778   0.0000000), wk =   0.0123457
        k(  268) = (   0.0555556  -0.0555556   0.0000000), wk =   0.0000000
        k(  269) = (  -0.1666667   0.4444444   0.0000000), wk =   0.0123457
        k(  270) = (   0.0555556   0.6666667   0.0000000), wk =   0.0000000
        k(  271) = (  -0.2777778   0.4444444   0.0000000), wk =   0.0123457
        k(  272) = (  -0.0555556   0.6666667   0.0000000), wk =   0.0000000
        k(  273) = (  -0.5000000   0.1666667   0.0000000), wk =   0.0123457
        k(  274) = (  -0.2777778   0.3888889   0.0000000), wk =   0.0000000
        k(  275) = (   0.3333333  -0.5000000   0.0000000), wk =   0.0123457
        k(  276) = (   0.5555556  -0.2777778   0.0000000), wk =   0.0000000
        k(  277) = (  -0.1666667  -0.3333333   0.0000000), wk =   0.0123457
        k(  278) = (   0.0555556  -0.1111111   0.0000000), wk =   0.0000000
        k(  279) = (  -0.1666667   0.5000000   0.0000000), wk =   0.0123457
        k(  280) = (   0.0555556   0.7222222   0.0000000), wk =   0.0000000
        k(  281) = (  -0.3333333   0.5000000   0.0000000), wk =   0.0123457
        k(  282) = (  -0.1111111   0.7222222   0.0000000), wk =   0.0000000
        k(  283) = (  -0.5555556   0.1666667   0.0000000), wk =   0.0123457
        k(  284) = (  -0.3333333   0.3888889   0.0000000), wk =   0.0000000
        k(  285) = (   0.3888889  -0.5555556   0.0000000), wk =   0.0123457
        k(  286) = (   0.6111111  -0.3333333   0.0000000), wk =   0.0000000
        k(  287) = (  -0.1666667  -0.3888889   0.0000000), wk =   0.0123457
        k(  288) = (   0.0555556  -0.1666667   0.0000000), wk =   0.0000000
        k(  289) = (  -0.1666667   0.5555556   0.0000000), wk =   0.0123457
        k(  290) = (   0.0555556   0.7777778   0.0000000), wk =   0.0000000
        k(  291) = (  -0.3888889   0.5555556   0.0000000), wk =   0.0123457
        k(  292) = (  -0.1666667   0.7777778   0.0000000), wk =   0.0000000
        k(  293) = (  -0.4444444   0.2222222   0.0000000), wk =   0.0123457
        k(  294) = (  -0.2222222   0.4444444   0.0000000), wk =   0.0000000
        k(  295) = (  -0.2222222  -0.2222222   0.0000000), wk =   0.0061728
        k(  296) = (   0.0000000  -0.0000000   0.0000000), wk =   0.0000000
        k(  297) = (  -0.2222222   0.4444444   0.0000000), wk =   0.0123457
        k(  298) = (   0.0000000   0.6666667   0.0000000), wk =   0.0000000
        k(  299) = (  -0.5000000   0.2222222   0.0000000), wk =   0.0123457
        k(  300) = (  -0.2777778   0.4444444   0.0000000), wk =   0.0000000
        k(  301) = (   0.2777778  -0.5000000   0.0000000), wk =   0.0123457
        k(  302) = (   0.5000000  -0.2777778   0.0000000), wk =   0.0000000
        k(  303) = (  -0.2222222  -0.2777778   0.0000000), wk =   0.0123457
        k(  304) = (   0.0000000  -0.0555556   0.0000000), wk =   0.0000000
        k(  305) = (  -0.2222222   0.5000000   0.0000000), wk =   0.0123457
        k(  306) = (   0.0000000   0.7222222   0.0000000), wk =   0.0000000
        k(  307) = (  -0.2777778   0.5000000   0.0000000), wk =   0.0123457
        k(  308) = (  -0.0555556   0.7222222   0.0000000), wk =   0.0000000
        k(  309) = (  -0.5555556   0.2222222   0.0000000), wk =   0.0123457
        k(  310) = (  -0.3333333   0.4444444   0.0000000), wk =   0.0000000
        k(  311) = (   0.3333333  -0.5555556   0.0000000), wk =   0.0123457
        k(  312) = (   0.5555556  -0.3333333   0.0000000), wk =   0.0000000
        k(  313) = (  -0.2222222  -0.3333333   0.0000000), wk =   0.0123457
        k(  314) = (   0.0000000  -0.1111111   0.0000000), wk =   0.0000000
        k(  315) = (  -0.2222222   0.5555556   0.0000000), wk =   0.0123457
        k(  316) = (   0.0000000   0.7777778   0.0000000), wk =   0.0000000
        k(  317) = (  -0.3333333   0.5555556   0.0000000), wk =   0.0123457
        k(  318) = (  -0.1111111   0.7777778   0.0000000), wk =   0.0000000
        k(  319) = (   0.3888889  -0.6111111   0.0000000), wk =   0.0061728
        k(  320) = (   0.6111111  -0.3888889   0.0000000), wk =   0.0000000
        k(  321) = (  -0.2222222  -0.3888889   0.0000000), wk =   0.0123457
        k(  322) = (   0.0000000  -0.1666667   0.0000000), wk =   0.0000000
        k(  323) = (  -0.3888889   0.6111111   0.0000000), wk =   0.0061728
        k(  324) = (  -0.1666667   0.8333333   0.0000000), wk =   0.0000000
        k(  325) = (  -0.5555556   0.2777778   0.0000000), wk =   0.0123457
        k(  326) = (  -0.3333333   0.5000000   0.0000000), wk =   0.0000000
        k(  327) = (  -0.2777778  -0.2777778   0.0000000), wk =   0.0061728
        k(  328) = (  -0.0555556  -0.0555556   0.0000000), wk =   0.0000000
        k(  329) = (  -0.2777778   0.5555556   0.0000000), wk =   0.0123457
        k(  330) = (  -0.0555556   0.7777778   0.0000000), wk =   0.0000000
        k(  331) = (  -0.6111111   0.2777778   0.0000000), wk =   0.0123457
        k(  332) = (  -0.3888889   0.5000000   0.0000000), wk =   0.0000000
        k(  333) = (   0.3333333  -0.6111111   0.0000000), wk =   0.0123457
        k(  334) = (   0.5555556  -0.3888889   0.0000000), wk =   0.0000000
        k(  335) = (  -0.2777778  -0.3333333   0.0000000), wk =   0.0123457
        k(  336) = (  -0.0555556  -0.1111111   0.0000000), wk =   0.0000000
        k(  337) = (  -0.2777778   0.6111111   0.0000000), wk =   0.0123457
        k(  338) = (  -0.0555556   0.8333333   0.0000000), wk =   0.0000000
        k(  339) = (  -0.3333333   0.6111111   0.0000000), wk =   0.0123457
        k(  340) = (  -0.1111111   0.8333333   0.0000000), wk =   0.0000000
        k(  341) = (  -0.3333333  -0.3333333   0.0000000), wk =   0.0061728
        k(  342) = (  -0.1111111  -0.1111111   0.0000000), wk =   0.0000000

     Dense  grid:  1108055 G-vectors     FFT dimensions: (  72,  72, 500)

     Dynamical RAM for                 wfc:       3.96 MB

     Dynamical RAM for     wfc (w. buffer):       3.96 MB

     Dynamical RAM for           str. fact:       4.23 MB

     Dynamical RAM for           local pot:       0.53 MB

     Dynamical RAM for          nlocal pot:       8.46 MB

     Dynamical RAM for                qrad:       2.28 MB

     Dynamical RAM for          rho,v,vnew:      13.82 MB

     Dynamical RAM for           G-vectors:       8.98 MB

     Dynamical RAM for          h,s,v(r/c):       0.16 MB

     Dynamical RAM for          <psi|beta>:       0.01 MB

     Dynamical RAM for                 psi:      15.86 MB

     Dynamical RAM for                hpsi:      15.86 MB

     Dynamical RAM for                spsi:      15.86 MB

     Dynamical RAM for      wfcinit/wfcrot:       8.46 MB

     Dynamical RAM for           addusdens:      95.10 MB

     Estimated static dynamical RAM per process >      61.06 MB

     Estimated max dynamical RAM per process >     156.16 MB

     Estimated total dynamical RAM >       1.22 GB
 ----2D----2D----2D----2D----2D----2D----2D----2D----2D----2D----2D----2D
  The code is running with the 2D cutoff
  Please refer to:
  Sohier, T., Calandra, M., & Mauri, F. (2017), 
  Density functional perturbation theory for gated two-dimensional heterostructures:
  Theoretical developments and application to flexural phonons in graphene.
  Physical Review B, 96(7), 75448. https://doi.org/10.1103/PhysRevB.96.075448
 ----2D----2D----2D----2D----2D----2D----2D----2D----2D----2D----2D----2D

     The potential is recalculated from file :
     /home/ext_chineason_graduate_utm_my/fgc/tmp/10.2/_ph0/fgc.save/charge-density


     negative rho (up, down):  5.457E-06 0.000E+00
     Starting wfcs are   16 atomic wfcs

     Band Structure Calculation
     Davidson diagonalization with overlap

     Computing kpt #:     1
     total cpu time spent up to now is       12.3 secs

     Computing kpt #:     2
     total cpu time spent up to now is       24.4 secs

     Computing kpt #:     3
     total cpu time spent up to now is       39.4 secs

     Computing kpt #:     4
     total cpu time spent up to now is       51.4 secs

     Computing kpt #:     5
     total cpu time spent up to now is       68.7 secs

     Computing kpt #:     6
     total cpu time spent up to now is       82.7 secs

     Computing kpt #:     7
     total cpu time spent up to now is       94.9 secs

     Computing kpt #:     8
     total cpu time spent up to now is      105.8 secs

     Computing kpt #:     9
     total cpu time spent up to now is      116.9 secs

     Computing kpt #:    10
     total cpu time spent up to now is      129.4 secs

     Computing kpt #:    11
     total cpu time spent up to now is      142.4 secs

     Computing kpt #:    12
     total cpu time spent up to now is      154.4 secs

     Computing kpt #:    13
     total cpu time spent up to now is      167.0 secs

     Computing kpt #:    14
     total cpu time spent up to now is      178.2 secs

     Computing kpt #:    15
     total cpu time spent up to now is      186.2 secs

     Computing kpt #:    16
     total cpu time spent up to now is      202.0 secs

     Computing kpt #:    17
     total cpu time spent up to now is      211.8 secs

     Computing kpt #:    18
     total cpu time spent up to now is      228.1 secs

     Computing kpt #:    19
     total cpu time spent up to now is      236.0 secs

     Computing kpt #:    20
     total cpu time spent up to now is      254.0 secs

     Computing kpt #:    21
     total cpu time spent up to now is      278.7 secs

     Computing kpt #:    22
     total cpu time spent up to now is      295.1 secs

     Computing kpt #:    23
     total cpu time spent up to now is      309.1 secs

     Computing kpt #:    24
     total cpu time spent up to now is      324.3 secs

     Computing kpt #:    25
     total cpu time spent up to now is      341.7 secs

     Computing kpt #:    26
     total cpu time spent up to now is      356.4 secs

     Computing kpt #:    27
     total cpu time spent up to now is      375.5 secs

     Computing kpt #:    28
     total cpu time spent up to now is      390.6 secs

     Computing kpt #:    29
     total cpu time spent up to now is      409.8 secs

     Computing kpt #:    30
     total cpu time spent up to now is      427.2 secs

     Computing kpt #:    31
     total cpu time spent up to now is      448.8 secs

     Computing kpt #:    32
     total cpu time spent up to now is      464.1 secs

     Computing kpt #:    33
     total cpu time spent up to now is      484.1 secs

     Computing kpt #:    34
     total cpu time spent up to now is      504.9 secs

     Computing kpt #:    35
     total cpu time spent up to now is      522.6 secs

     Computing kpt #:    36
     total cpu time spent up to now is      541.9 secs

     Computing kpt #:    37
     total cpu time spent up to now is      557.8 secs

     Computing kpt #:    38
     total cpu time spent up to now is      569.0 secs

     Computing kpt #:    39
     total cpu time spent up to now is      581.8 secs

     Computing kpt #:    40
     total cpu time spent up to now is      597.1 secs

     Computing kpt #:    41
     total cpu time spent up to now is      615.3 secs

     Computing kpt #:    42
     total cpu time spent up to now is      630.5 secs

     Computing kpt #:    43
     total cpu time spent up to now is      650.7 secs

     Computing kpt #:    44
     total cpu time spent up to now is      665.4 secs

     Computing kpt #:    45
     total cpu time spent up to now is      682.6 secs

     Computing kpt #:    46
     total cpu time spent up to now is      701.8 secs

     Computing kpt #:    47
     total cpu time spent up to now is      716.9 secs

     Computing kpt #:    48
     total cpu time spent up to now is      737.0 secs

     Computing kpt #:    49
     total cpu time spent up to now is      751.5 secs

     Computing kpt #:    50
     total cpu time spent up to now is      769.8 secs

     Computing kpt #:    51
     total cpu time spent up to now is      787.9 secs

     Computing kpt #:    52
     total cpu time spent up to now is      801.2 secs

     Computing kpt #:    53
     total cpu time spent up to now is      816.9 secs

     Computing kpt #:    54
     total cpu time spent up to now is      832.0 secs

     Computing kpt #:    55
     total cpu time spent up to now is      846.7 secs

     Computing kpt #:    56
     total cpu time spent up to now is      861.7 secs

     Computing kpt #:    57
     total cpu time spent up to now is      875.4 secs

     Computing kpt #:    58
     total cpu time spent up to now is      895.3 secs

     Computing kpt #:    59
     total cpu time spent up to now is      911.6 secs

     Computing kpt #:    60
     total cpu time spent up to now is      920.4 secs

     Computing kpt #:    61
     total cpu time spent up to now is      930.6 secs

     Computing kpt #:    62
     total cpu time spent up to now is      943.0 secs

     Computing kpt #:    63
     total cpu time spent up to now is      960.5 secs

     Computing kpt #:    64
     total cpu time spent up to now is      976.3 secs

     Computing kpt #:    65
     total cpu time spent up to now is      992.3 secs

     Computing kpt #:    66
     total cpu time spent up to now is     1001.8 secs

     Computing kpt #:    67
     total cpu time spent up to now is     1015.6 secs

     Computing kpt #:    68
     total cpu time spent up to now is     1035.1 secs

     Computing kpt #:    69
     total cpu time spent up to now is     1051.3 secs

     Computing kpt #:    70
     total cpu time spent up to now is     1059.1 secs

     Computing kpt #:    71
     total cpu time spent up to now is     1071.7 secs

     Computing kpt #:    72
     total cpu time spent up to now is     1088.5 secs

     Computing kpt #:    73
     total cpu time spent up to now is     1100.6 secs

     Computing kpt #:    74
     total cpu time spent up to now is     1115.9 secs

     Computing kpt #:    75
     total cpu time spent up to now is     1135.4 secs

     Computing kpt #:    76
     total cpu time spent up to now is     1151.3 secs

     Computing kpt #:    77
     total cpu time spent up to now is     1168.4 secs

     Computing kpt #:    78
     total cpu time spent up to now is     1183.9 secs

     Computing kpt #:    79
     total cpu time spent up to now is     1205.3 secs

     Computing kpt #:    80
     total cpu time spent up to now is     1224.4 secs

     Computing kpt #:    81
     total cpu time spent up to now is     1245.1 secs

     Computing kpt #:    82
     total cpu time spent up to now is     1263.3 secs

     Computing kpt #:    83
     total cpu time spent up to now is     1278.0 secs

     Computing kpt #:    84
     total cpu time spent up to now is     1297.5 secs

     Computing kpt #:    85
     total cpu time spent up to now is     1312.1 secs

     Computing kpt #:    86
     total cpu time spent up to now is     1329.7 secs

     Computing kpt #:    87
     total cpu time spent up to now is     1342.0 secs

     Computing kpt #:    88
     total cpu time spent up to now is     1356.4 secs

     Computing kpt #:    89
     total cpu time spent up to now is     1372.8 secs

     Computing kpt #:    90
     total cpu time spent up to now is     1383.6 secs

     Computing kpt #:    91
     total cpu time spent up to now is     1400.8 secs

     Computing kpt #:    92
     total cpu time spent up to now is     1414.5 secs

     Computing kpt #:    93
     total cpu time spent up to now is     1429.3 secs

     Computing kpt #:    94
     total cpu time spent up to now is     1443.0 secs

     Computing kpt #:    95
     total cpu time spent up to now is     1457.3 secs

     Computing kpt #:    96
     total cpu time spent up to now is     1467.8 secs

     Computing kpt #:    97
     total cpu time spent up to now is     1481.9 secs

     Computing kpt #:    98
     total cpu time spent up to now is     1492.4 secs

     Computing kpt #:    99
     total cpu time spent up to now is     1498.8 secs

     Computing kpt #:   100
     total cpu time spent up to now is     1509.5 secs

     Computing kpt #:   101
     total cpu time spent up to now is     1515.7 secs

     Computing kpt #:   102
     total cpu time spent up to now is     1527.5 secs

     Computing kpt #:   103
     total cpu time spent up to now is     1536.0 secs

     Computing kpt #:   104
     total cpu time spent up to now is     1549.3 secs

     Computing kpt #:   105
     total cpu time spent up to now is     1559.5 secs

     Computing kpt #:   106
     total cpu time spent up to now is     1570.5 secs

     Computing kpt #:   107
     total cpu time spent up to now is     1578.8 secs

     Computing kpt #:   108
     total cpu time spent up to now is     1591.1 secs

     Computing kpt #:   109
     total cpu time spent up to now is     1610.9 secs

     Computing kpt #:   110
     total cpu time spent up to now is     1624.1 secs

     Computing kpt #:   111
     total cpu time spent up to now is     1641.8 secs

     Computing kpt #:   112
     total cpu time spent up to now is     1654.9 secs

     Computing kpt #:   113
     total cpu time spent up to now is     1672.3 secs

     Computing kpt #:   114
     total cpu time spent up to now is     1686.4 secs

     Computing kpt #:   115
     total cpu time spent up to now is     1695.9 secs

     Computing kpt #:   116
     total cpu time spent up to now is     1710.5 secs

     Computing kpt #:   117
     total cpu time spent up to now is     1721.9 secs

     Computing kpt #:   118
     total cpu time spent up to now is     1738.4 secs

     Computing kpt #:   119
     total cpu time spent up to now is     1748.1 secs

     Computing kpt #:   120
     total cpu time spent up to now is     1758.3 secs

     Computing kpt #:   121
     total cpu time spent up to now is     1771.7 secs

     Computing kpt #:   122
     total cpu time spent up to now is     1784.3 secs

     Computing kpt #:   123
     total cpu time spent up to now is     1796.6 secs

     Computing kpt #:   124
     total cpu time spent up to now is     1811.0 secs

     Computing kpt #:   125
     total cpu time spent up to now is     1823.1 secs

     Computing kpt #:   126
     total cpu time spent up to now is     1836.8 secs

     Computing kpt #:   127
     total cpu time spent up to now is     1847.9 secs

     Computing kpt #:   128
     total cpu time spent up to now is     1856.4 secs

     Computing kpt #:   129
     total cpu time spent up to now is     1868.8 secs

     Computing kpt #:   130
     total cpu time spent up to now is     1879.9 secs

     Computing kpt #:   131
     total cpu time spent up to now is     1892.6 secs

     Computing kpt #:   132
     total cpu time spent up to now is     1903.2 secs

     Computing kpt #:   133
     total cpu time spent up to now is     1914.6 secs

     Computing kpt #:   134
     total cpu time spent up to now is     1927.0 secs

     Computing kpt #:   135
     total cpu time spent up to now is     1944.3 secs

     Computing kpt #:   136
     total cpu time spent up to now is     1962.1 secs

     Computing kpt #:   137
     total cpu time spent up to now is     1981.6 secs

     Computing kpt #:   138
     total cpu time spent up to now is     1998.0 secs

     Computing kpt #:   139
     total cpu time spent up to now is     2013.9 secs

     Computing kpt #:   140
     total cpu time spent up to now is     2024.1 secs

     Computing kpt #:   141
     total cpu time spent up to now is     2038.8 secs

     Computing kpt #:   142
     total cpu time spent up to now is     2049.2 secs

     Computing kpt #:   143
     total cpu time spent up to now is     2062.1 secs

     Computing kpt #:   144
     total cpu time spent up to now is     2090.0 secs

     Computing kpt #:   145
     total cpu time spent up to now is     2104.8 secs

     Computing kpt #:   146
     total cpu time spent up to now is     2118.5 secs

     Computing kpt #:   147
[...]
        k(  303) = (  -0.2222222  -0.2777778   0.0000000), wk =   0.0123457
        k(  304) = (   0.0000000  -0.0555556   0.0000000), wk =   0.0000000
        k(  305) = (  -0.2222222   0.5000000   0.0000000), wk =   0.0123457
        k(  306) = (   0.0000000   0.7222222   0.0000000), wk =   0.0000000
        k(  307) = (  -0.2777778   0.5000000   0.0000000), wk =   0.0123457
        k(  308) = (  -0.0555556   0.7222222   0.0000000), wk =   0.0000000
        k(  309) = (  -0.5555556   0.2222222   0.0000000), wk =   0.0123457
        k(  310) = (  -0.3333333   0.4444444   0.0000000), wk =   0.0000000
        k(  311) = (   0.3333333  -0.5555556   0.0000000), wk =   0.0123457
        k(  312) = (   0.5555556  -0.3333333   0.0000000), wk =   0.0000000
        k(  313) = (  -0.2222222  -0.3333333   0.0000000), wk =   0.0123457
        k(  314) = (   0.0000000  -0.1111111   0.0000000), wk =   0.0000000
        k(  315) = (  -0.2222222   0.5555556   0.0000000), wk =   0.0123457
        k(  316) = (   0.0000000   0.7777778   0.0000000), wk =   0.0000000
        k(  317) = (  -0.3333333   0.5555556   0.0000000), wk =   0.0123457
        k(  318) = (  -0.1111111   0.7777778   0.0000000), wk =   0.0000000
        k(  319) = (   0.3888889  -0.6111111   0.0000000), wk =   0.0061728
        k(  320) = (   0.6111111  -0.3888889   0.0000000), wk =   0.0000000
        k(  321) = (  -0.2222222  -0.3888889   0.0000000), wk =   0.0123457
        k(  322) = (   0.0000000  -0.1666667   0.0000000), wk =   0.0000000
        k(  323) = (  -0.3888889   0.6111111   0.0000000), wk =   0.0061728
        k(  324) = (  -0.1666667   0.8333333   0.0000000), wk =   0.0000000
        k(  325) = (  -0.5555556   0.2777778   0.0000000), wk =   0.0123457
        k(  326) = (  -0.3333333   0.5000000   0.0000000), wk =   0.0000000
        k(  327) = (  -0.2777778  -0.2777778   0.0000000), wk =   0.0061728
        k(  328) = (  -0.0555556  -0.0555556   0.0000000), wk =   0.0000000
        k(  329) = (  -0.2777778   0.5555556   0.0000000), wk =   0.0123457
        k(  330) = (  -0.0555556   0.7777778   0.0000000), wk =   0.0000000
        k(  331) = (  -0.6111111   0.2777778   0.0000000), wk =   0.0123457
        k(  332) = (  -0.3888889   0.5000000   0.0000000), wk =   0.0000000
        k(  333) = (   0.3333333  -0.6111111   0.0000000), wk =   0.0123457
        k(  334) = (   0.5555556  -0.3888889   0.0000000), wk =   0.0000000
        k(  335) = (  -0.2777778  -0.3333333   0.0000000), wk =   0.0123457
        k(  336) = (  -0.0555556  -0.1111111   0.0000000), wk =   0.0000000
        k(  337) = (  -0.2777778   0.6111111   0.0000000), wk =   0.0123457
        k(  338) = (  -0.0555556   0.8333333   0.0000000), wk =   0.0000000
        k(  339) = (  -0.3333333   0.6111111   0.0000000), wk =   0.0123457
        k(  340) = (  -0.1111111   0.8333333   0.0000000), wk =   0.0000000
        k(  341) = (  -0.3333333  -0.3333333   0.0000000), wk =   0.0061728
        k(  342) = (  -0.1111111  -0.1111111   0.0000000), wk =   0.0000000

     PseudoPot. # 1 for C  read from file:
     ../pseudo/c_pbe_v1.2.uspp.F.UPF
     MD5 check sum: d1aef80898a10debaa0f26306b886e00
     Pseudo is Ultrasoft + core correction, Zval =  4.0
     Generated by new atomic code, or converted to UPF format
     Using radial grid of  721 points,  4 beta functions with: 
                l(1) =   0
                l(2) =   0
                l(3) =   1
                l(4) =   1
     Q(r) pseudized with  8 coefficients,  rinner =    1.100   1.100   1.100


     PseudoPot. # 2 for F  read from file:
     ../pseudo/f_pbe_v1.4.uspp.F.UPF
     MD5 check sum: 4c38b6a325caf53ec0e86aed9459de46
     Pseudo is Ultrasoft, Zval =  7.0
     Generated by new atomic code, or converted to UPF format
     Using radial grid of  799 points,  4 beta functions with: 
                l(1) =   0
                l(2) =   0
                l(3) =   1
                l(4) =   1
     Q(r) pseudized with  8 coefficients,  rinner =    0.950   0.950   0.950


     point group C_2  (2)   
     there are  2 classes
     the character table:

       E     C2   
A      1.00  1.00
B      1.00 -1.00

     the symmetry operations in each class and the name of the first element:

     E        1
          identity                                               
     C2       2
          180 deg rotation - cryst. axis [1,1,0]                 


     Atomic displacements:
     There are   12 irreducible representations

     Representation     1      1 modes -  Not done in this run
     Irreps are as follows:

                     mode #   1
                     (  -0.00000  -0.00000   ) 
                     (  -0.00000  -0.00000   ) 
                     (  -0.00000  -0.00000   ) 
                     (  -0.00000  -0.00000   ) 
                     (  -0.00000  -0.00000   ) 
                     (  -0.00000  -0.00000   ) 
                     (  -0.10641  -0.00000   ) 
                     (  -0.18290   0.67259   ) 
                     (  -0.02392   0.04778   ) 
                     (   0.55536   0.20474   ) 
                     (   0.29930   0.23921   ) 
                     (  -0.04290  -0.03186   ) 

     Representation     2      1 modes -  To be done
     Irreps are as follows:

                     mode #   2
                     (  -0.34616   0.00000   ) 
                     (   0.60030   0.12160   ) 
                     (  -0.05888  -0.03952   ) 
                     (   0.22404  -0.66414   ) 
                     (   0.05994   0.01020   ) 
                     (   0.04914  -0.05112   ) 
                     (   0.00000  -0.00000   ) 
                     (   0.00000  -0.00000   ) 
                     (   0.00000  -0.00000   ) 
                     (   0.00000  -0.00000   ) 
                     (   0.00000  -0.00000   ) 
                     (   0.00000  -0.00000   ) 

     Representation     3      1 modes -  Not done in this run
     Irreps are as follows:

                     mode #   3
                     (  -0.08724  -0.00000   ) 
                     (   0.03254  -0.01629   ) 
                     (   0.66713   0.21448   ) 
                     (  -0.00142  -0.07316   ) 
                     (  -0.01831   0.05697   ) 
                     (  -0.32706   0.61975   ) 
                     (   0.00000  -0.00000   ) 
                     (   0.00000  -0.00000   ) 
                     (   0.00000  -0.00000   ) 
                     (   0.00000  -0.00000   ) 
                     (   0.00000  -0.00000   ) 
                     (   0.00000  -0.00000   ) 

     Representation     4      1 modes -  Not done in this run
     Irreps are as follows:

                     mode #   4
                     (  -0.00000  -0.00000   ) 
                     (  -0.00000  -0.00000   ) 
                     (  -0.00000  -0.00000   ) 
                     (  -0.00000  -0.00000   ) 
                     (  -0.00000  -0.00000   ) 
                     (  -0.00000  -0.00000   ) 
                     (  -0.09220  -0.00000   ) 
                     (   0.03644   0.02889   ) 
                     (  -0.30935  -0.62741   ) 
                     (   0.03812  -0.07213   ) 
                     (   0.00352   0.06320   ) 
                     (   0.67159  -0.19571   ) 

     Representation     5      1 modes -  Not done in this run
     Irreps are as follows:

                     mode #   5
                     (  -0.00000  -0.00000   ) 
                     (  -0.00000  -0.00000   ) 
                     (  -0.00000  -0.00000   ) 
                     (  -0.00000  -0.00000   ) 
                     (  -0.00000  -0.00000   ) 
                     (  -0.00000  -0.00000   ) 
                     (  -0.69295  -0.00000   ) 
                     (   0.02324  -0.10712   ) 
                     (   0.04483   0.07614   ) 
                     (  -0.02770  -0.37714   ) 
                     (  -0.15494   0.57025   ) 
                     (  -0.08277   0.03093   ) 

     Representation     6      1 modes -  Not done in this run
     Irreps are as follows:

                     mode #   6
                     (  -0.61038   0.00000   ) 
                     (  -0.34510  -0.06663   ) 
                     (  -0.06196  -0.00825   ) 
                     (  -0.05573  -0.01625   ) 
                     (  -0.15456   0.68471   ) 
                     (   0.01888  -0.05959   ) 
                     (  -0.00000  -0.00000   ) 
                     (  -0.00000  -0.00000   ) 
                     (  -0.00000  -0.00000   ) 
                     (  -0.00000  -0.00000   ) 
                     (  -0.00000  -0.00000   ) 
                     (  -0.00000  -0.00000   ) 

     Representation     7      1 modes -  Not done in this run
     Irreps are as follows:

                     mode #   7
                     (   0.00000  -0.00000   ) 
                     (   0.00000  -0.00000   ) 
                     (   0.00000  -0.00000   ) 
                     (   0.00000  -0.00000   ) 
                     (   0.00000  -0.00000   ) 
                     (   0.00000  -0.00000   ) 
                     (  -0.47757   0.00000   ) 
                     (   0.46861   0.21755   ) 
                     (   0.06998  -0.01037   ) 
                     (  -0.29747   0.60210   ) 
                     (  -0.07599  -0.19545   ) 
                     (   0.00194  -0.07072   ) 

     Representation     8      1 modes -  Not done in this run
     Irreps are as follows:

                     mode #   8
                     (  -0.18193  -0.00000   ) 
                     (  -0.66220   0.07269   ) 
                     (   0.10953  -0.10542   ) 
                     (   0.02180  -0.48612   ) 
                     (   0.04906  -0.48754   ) 
                     (  -0.08480  -0.12617   ) 
                     (  -0.00000   0.00000   ) 
                     (  -0.00000   0.00000   ) 
                     (  -0.00000   0.00000   ) 
                     (  -0.00000   0.00000   ) 
                     (  -0.00000   0.00000   ) 
                     (  -0.00000   0.00000   ) 

     Representation     9      1 modes -  Not done in this run
     Irreps are as follows:

                     mode #   9
                     (  -0.00000  -0.00000   ) 
                     (  -0.00000  -0.00000   ) 
                     (  -0.00000  -0.00000   ) 
                     (  -0.00000  -0.00000   ) 
                     (  -0.00000  -0.00000   ) 
                     (  -0.00000  -0.00000   ) 
                     (  -0.10743  -0.00000   ) 
                     (  -0.00021  -0.00890   ) 
                     (  -0.68033   0.15979   ) 
                     (  -0.00170   0.05406   ) 
                     (   0.02056  -0.09095   ) 
                     (   0.03923   0.69774   ) 

     Representation    10      1 modes -  Not done in this run
     Irreps are as follows:

                     mode #  10
                     (  -0.03498   0.00000   ) 
                     (   0.16460  -0.02287   ) 
                     (   0.47983  -0.49084   ) 
                     (  -0.00829   0.16104   ) 
                     (   0.00223   0.05321   ) 
                     (  -0.40007  -0.55777   ) 
                     (  -0.00000   0.00000   ) 
                     (  -0.00000   0.00000   ) 
                     (  -0.00000   0.00000   ) 
                     (  -0.00000   0.00000   ) 
                     (  -0.00000   0.00000   ) 
                     (  -0.00000   0.00000   ) 

     Representation    11      1 modes -  Not done in this run
     Irreps are as follows:

                     mode #  11
                     (  -0.68241   0.00000   ) 
                     (   0.16811  -0.01821   ) 
                     (  -0.05379   0.05326   ) 
                     (  -0.06900   0.48213   ) 
                     (   0.09699  -0.49764   ) 
                     (   0.04311   0.06223   ) 
                     (  -0.00000  -0.00000   ) 
                     (  -0.00000  -0.00000   ) 
                     (  -0.00000  -0.00000   ) 
                     (  -0.00000  -0.00000   ) 
                     (  -0.00000  -0.00000   ) 
                     (  -0.00000  -0.00000   ) 

     Representation    12      1 modes -  Not done in this run
     Irreps are as follows:

                     mode #  12
                     (   0.00000  -0.00000   ) 
                     (   0.00000  -0.00000   ) 
                     (   0.00000  -0.00000   ) 
                     (   0.00000  -0.00000   ) 
                     (   0.00000  -0.00000   ) 
                     (   0.00000  -0.00000   ) 
                     (  -0.51028  -0.00000   ) 
                     (  -0.43853  -0.20173   ) 
                     (   0.07773  -0.02393   ) 
                     (   0.19369  -0.09241   ) 
                     (   0.21415  -0.63362   ) 
                     (  -0.01007  -0.08070   ) 

     Compute atoms:     1,    2,


     PHONON       :      1h25m CPU      2h29m WALL



     Representation #   2 mode #   2

     Self-consistent Calculation

      iter #   1 total cpu time :  9806.8 secs   av.it.:   5.5
      thresh= 1.000E-02 alpha_mix =  0.700 |ddv_scf|^2 =  6.413E-08

      iter #   2 total cpu time : 11553.5 secs   av.it.:  13.8
      thresh= 2.532E-05 alpha_mix =  0.700 |ddv_scf|^2 =  5.212E-08

      iter #   3 total cpu time : 13153.9 secs   av.it.:  13.0
      thresh= 2.283E-05 alpha_mix =  0.700 |ddv_scf|^2 =  7.778E-10

      iter #   4 total cpu time : 14862.0 secs   av.it.:  13.8
      thresh= 2.789E-06 alpha_mix =  0.700 |ddv_scf|^2 =  5.109E-11

      iter #   5 total cpu time : 16667.8 secs   av.it.:  13.9
      thresh= 7.147E-07 alpha_mix =  0.700 |ddv_scf|^2 =  1.737E-12

      iter #   6 total cpu time : 18401.6 secs   av.it.:  13.8
      thresh= 1.318E-07 alpha_mix =  0.700 |ddv_scf|^2 =  1.886E-14

     End of self-consistent calculation

     Convergence has been achieved 

     Not diagonalizing because representation    0 is not done

     init_run     :      1.64s CPU      2.06s WALL (       1 calls)
     electrons    :   3152.42s CPU   5298.46s WALL (       1 calls)

     Called by init_run:
     wfcinit      :      0.00s CPU      0.01s WALL (       1 calls)
     wfcinit:atom :      0.86s CPU      1.33s WALL (     342 calls)
     wfcinit:wfcr :    103.32s CPU    162.70s WALL (     342 calls)
     potinit      :      0.19s CPU      0.22s WALL (       1 calls)
     hinit0       :      0.41s CPU      0.43s WALL (       1 calls)

     Called by electrons:
     c_bands      :   3152.37s CPU   5298.36s WALL (       1 calls)
     v_of_rho     :      0.29s CPU      0.33s WALL (       2 calls)
     v_h          :      0.02s CPU      0.02s WALL (       2 calls)
     v_xc         :      0.27s CPU      0.30s WALL (       2 calls)
     newd         :      0.60s CPU      1.02s WALL (       2 calls)

     Called by c_bands:
     init_us_2    :      8.58s CPU     15.70s WALL (    2223 calls)
     init_us_2:cp :      8.57s CPU     15.69s WALL (    2223 calls)
     cegterg      :   3015.22s CPU   5074.46s WALL (     670 calls)

     Called by sum_band:

     Called by *egterg:
     cdiaghg      :    171.31s CPU    330.58s WALL (    9718 calls)
     cegterg:over :    891.07s CPU   1609.04s WALL (    9376 calls)
     cegterg:upda :     61.69s CPU    112.82s WALL (    9376 calls)
     cegterg:last :     37.24s CPU     52.77s WALL (    1690 calls)
     h_psi        :   3720.02s CPU   5988.24s WALL (   28147 calls)
     s_psi        :    190.07s CPU    360.94s WALL (   46932 calls)
     g_psi        :      2.79s CPU      3.50s WALL (    9376 calls)

     Called by h_psi:
     h_psi:calbec :    805.83s CPU   1860.87s WALL (   28147 calls)
     vloc_psi     :   2796.92s CPU   3898.88s WALL (   28147 calls)
     add_vuspsi   :    109.23s CPU    212.34s WALL (   28147 calls)

     General routines
     calbec       :   1587.20s CPU   3362.46s WALL (   52062 calls)
     fft          :      3.67s CPU      4.38s WALL (     145 calls)
     ffts         :      8.39s CPU     14.04s WALL (     195 calls)
     fftw         :   4314.49s CPU   6423.20s WALL (  512949 calls)
     davcio       :      4.89s CPU     50.77s WALL (    6774 calls)

     Parallel routines

     PHONON       :      2h52m CPU      5h 8m WALL

     INITIALIZATION: 
     phq_setup    :      0.29s CPU      0.39s WALL (       1 calls)
     phq_init     :   1946.64s CPU   3628.28s WALL (       1 calls)

     phq_init     :   1946.64s CPU   3628.28s WALL (       1 calls)
     set_drhoc    :      0.47s CPU      0.62s WALL (       1 calls)
     init_vloc    :      0.40s CPU      0.40s WALL (       2 calls)
     init_us_1    :      0.12s CPU      0.12s WALL (       2 calls)
     init_us_2    :      8.58s CPU     15.70s WALL (    2223 calls)
     newd         :      0.60s CPU      1.02s WALL (       2 calls)
     dvanqq       :      3.91s CPU      3.92s WALL (       1 calls)
     drho         :   1896.19s CPU   3513.88s WALL (       1 calls)

     DYNAMICAL MATRIX:
     phqscf       :   5254.31s CPU   9496.55s WALL (       1 calls)
     dynmatrix    :      0.06s CPU      1.18s WALL (       1 calls)

     phqscf       :   5254.31s CPU   9496.55s WALL (       1 calls)
     solve_linter :   5213.10s CPU   9416.02s WALL (       1 calls)
     drhodv       :     41.20s CPU     80.42s WALL (       1 calls)



     phqscf       :   5254.31s CPU   9496.55s WALL (       1 calls)
     solve_linter :   5213.10s CPU   9416.02s WALL (       1 calls)

     solve_linter :   5213.10s CPU   9416.02s WALL (       1 calls)
     dvqpsi_us    :     31.91s CPU     47.84s WALL (     171 calls)
     sth_kernel   :   5175.17s CPU   9354.17s WALL (       6 calls)
     apply_dpot_b :     73.51s CPU     99.53s WALL (     855 calls)
     ortho        :     61.23s CPU    117.44s WALL (    1026 calls)
     cgsolve      :   4877.57s CPU   8872.69s WALL (    1026 calls)
     incdrhoscf   :    130.17s CPU    187.15s WALL (    1026 calls)
     addusddens   :      7.51s CPU     12.24s WALL (      18 calls)
     dv_of_drho   :      0.55s CPU      0.70s WALL (       6 calls)
     mix_pot      :      0.09s CPU      1.33s WALL (       6 calls)
     psymdvscf    :      1.06s CPU      1.61s WALL (       6 calls)
     newdq        :      1.03s CPU      1.07s WALL (       6 calls)
     adddvscf     :     14.84s CPU     35.69s WALL (     855 calls)
     drhodvus     :      0.00s CPU      0.02s WALL (       1 calls)

     dvqpsi_us    :     31.91s CPU     47.84s WALL (     171 calls)
     dvqpsi_us_on :      4.72s CPU     10.83s WALL (     171 calls)

     cgsolve      :   4877.57s CPU   8872.69s WALL (    1026 calls)
     ch_psi       :   3293.87s CPU   5680.75s WALL (   17759 calls)

     ch_psi       :   3293.87s CPU   5680.75s WALL (   17759 calls)
     h_psi        :   3720.02s CPU   5988.24s WALL (   28147 calls)
     last         :    885.37s CPU   1732.63s WALL (   17759 calls)

     h_psi        :   3720.02s CPU   5988.24s WALL (   28147 calls)
     add_vuspsi   :    109.23s CPU    212.34s WALL (   28147 calls)

     incdrhoscf   :    130.17s CPU    187.15s WALL (    1026 calls)
     addusdbec    :    146.64s CPU    295.98s WALL (    3078 calls)

     drhodvus     :      0.00s CPU      0.02s WALL (       1 calls)

      General routines
     calbec       :   1587.20s CPU   3362.46s WALL (   52062 calls)
     fft          :      3.67s CPU      4.38s WALL (     145 calls)
     ffts         :      8.39s CPU     14.04s WALL (     195 calls)
     fftw         :   4314.49s CPU   6423.20s WALL (  512949 calls)
     davcio       :      4.89s CPU     50.77s WALL (    6774 calls)
     write_rec    :      0.01s CPU      0.74s WALL (       7 calls)


     PHONON       :      2h52m CPU      5h 8m WALL


   This run was terminated on:  22:28:41   2Mar2024            

=------------------------------------------------------------------------------=
   JOB DONE.
=------------------------------------------------------------------------------=
