
     Program PHONON v.7.1 starts on 29Feb2024 at 21:39:28 

     This program is part of the open-source Quantum ESPRESSO suite
     for quantum simulation of materials; please cite
         "P. Giannozzi et al., J. Phys.:Condens. Matter 21 395502 (2009);
         "P. Giannozzi et al., J. Phys.:Condens. Matter 29 465901 (2017);
         "P. Giannozzi et al., J. Chem. Phys. 152 154105 (2020);
          URL http://www.quantum-espresso.org", 
     in publications or presentations arising from this work. More details at
     http://www.quantum-espresso.org/quote

     Parallel version (MPI), running on     8 processors

     MPI processes distributed on     1 nodes
     R & G space division:  proc/nbgrp/npool/nimage =       8
     351660 MiB available memory on the printing compute node when the environment starts

     Reading input from input.5.5
      Title line not specified: using 'default'.

     Reading xml data from directory:

     /home/ext_chineason_graduate_utm_my/fgc/tmp/5.5/fgc.save/

     IMPORTANT: XC functional enforced from input :
     Exchange-correlation= PBE
                           (   1   4   3   4   0   0   0)
     Any further DFT definition will be discarded
     Please, verify this is what you really want


     Parallelization info
     --------------------
     sticks:   dense  smooth     PW     G-vecs:    dense   smooth      PW
     Min         416     416    114               138498   138498   19368
     Max         417     417    115               138521   138521   19383
     Sum        3331    3331    913              1108055  1108055  154987

     Using Slab Decomposition

 ----2D----2D----2D----2D----2D----2D----2D----2D----2D----2D----2D----2D
  The code is running with the 2D cutoff
  Please refer to:
  Sohier, T., Calandra, M., & Mauri, F. (2017), 
  Density functional perturbation theory for gated two-dimensional heterostructures:
  Theoretical developments and application to flexural phonons in graphene.
  Physical Review B, 96(7), 75448. https://doi.org/10.1103/PhysRevB.96.075448
 ----2D----2D----2D----2D----2D----2D----2D----2D----2D----2D----2D----2D

     negative rho (up, down):  5.457E-06 0.000E+00
     Reading collected, re-writing distributed wavefunctions
        1 /  12 q-points for this run, from  5 to  5:
       N       xq(1)         xq(2)         xq(3) 
       1   0.000000000   0.000000000   0.000000000
       2   0.000000000   0.128300060   0.000000000
       3   0.000000000   0.256600120   0.000000000
       4   0.000000000   0.384900179   0.000000000
       5   0.000000000   0.513200239   0.000000000
       6   0.111111111   0.192450090   0.000000000
       7   0.111111111   0.320750150   0.000000000
       8   0.111111111   0.449050209   0.000000000
       9   0.111111111   0.577350269   0.000000000
      10   0.222222222   0.384900179   0.000000000
      11   0.222222222   0.513200239   0.000000000
      12   0.333333333   0.577350269   0.000000000


     Calculation of q =    0.0000000   0.5132002   0.0000000
     Subspace diagonalization in iterative solution of the eigenvalue problem:
     a serial algorithm will be used


     Parallelization info
     --------------------
     sticks:   dense  smooth     PW     G-vecs:    dense   smooth      PW
     Min         416     416    119               138498   138498   20957
     Max         417     417    120               138521   138521   20982
     Sum        3331    3331    955              1108055  1108055  167743

     Using Slab Decomposition


     Title: 
     default                                                                    


     bravais-lattice index     =            4
     lattice parameter (alat)  =       4.9233  a.u.
     unit-cell volume          =     733.8532 (a.u.)^3
     number of atoms/cell      =            4
     number of atomic types    =            2
     number of electrons       =        22.00
     number of Kohn-Sham states=           15
     kinetic-energy cutoff     =     500.0000  Ry
     charge density cutoff     =    2000.0000  Ry
     Exchange-correlation= PBE
                           (   1   4   3   4   0   0   0)

     celldm(1)=   4.923251  celldm(2)=   0.000000  celldm(3)=   7.101051
     celldm(4)=   0.000000  celldm(5)=   0.000000  celldm(6)=   0.000000

     crystal axes: (cart. coord. in units of alat)
               a(1) = (   1.000000   0.000000   0.000000 )  
               a(2) = (  -0.500000   0.866025   0.000000 )  
               a(3) = (   0.000000   0.000000   7.101051 )  

     reciprocal axes: (cart. coord. in units 2 pi/alat)
               b(1) = (  1.000000  0.577350 -0.000000 )  
               b(2) = (  0.000000  1.154701  0.000000 )  
               b(3) = (  0.000000 -0.000000  0.140824 )  


     PseudoPot. # 1 for C  read from file:
     ../pseudo/c_pbe_v1.2.uspp.F.UPF
     MD5 check sum: d1aef80898a10debaa0f26306b886e00
     Pseudo is Ultrasoft + core correction, Zval =  4.0
     Generated by new atomic code, or converted to UPF format
     Using radial grid of  721 points,  4 beta functions with: 
                l(1) =   0
                l(2) =   0
                l(3) =   1
                l(4) =   1
     Q(r) pseudized with  8 coefficients,  rinner =    1.100   1.100   1.100


     PseudoPot. # 2 for F  read from file:
     ../pseudo/f_pbe_v1.4.uspp.F.UPF
     MD5 check sum: 4c38b6a325caf53ec0e86aed9459de46
     Pseudo is Ultrasoft, Zval =  7.0
     Generated by new atomic code, or converted to UPF format
     Using radial grid of  799 points,  4 beta functions with: 
                l(1) =   0
                l(2) =   0
                l(3) =   1
                l(4) =   1
     Q(r) pseudized with  8 coefficients,  rinner =    0.950   0.950   0.950


     atomic species   valence    mass     pseudopotential
        C              4.00    12.01070     C ( 1.00)
        F              7.00    18.99840     F ( 1.00)

     12 Sym. Ops., with inversion, found


                                    s                        frac. trans.

      isym =  1     identity                                     

 cryst.   s( 1) = (     1          0          0      )
                  (     0          1          0      )
                  (     0          0          1      )

 cart.    s( 1) = (  1.0000000  0.0000000  0.0000000 )
                  (  0.0000000  1.0000000  0.0000000 )
                  (  0.0000000  0.0000000  1.0000000 )


      isym =  2     inv. 180 deg rotation - cart. axis [1,0,0]   

 cryst.   s( 2) = (    -1          0          0      )
                  (     1          1          0      )
                  (     0          0          1      )

 cart.    s( 2) = ( -1.0000000 -0.0000000  0.0000000 )
                  (  0.0000000  1.0000000  0.0000000 )
                  (  0.0000000  0.0000000  1.0000000 )


      isym =  3     120 deg rotation - cryst. axis [0,0,1]       

 cryst.   s( 3) = (     0          1          0      )    f =( -0.5000000 )
                  (    -1         -1          0      )       ( -0.5000000 )
                  (     0          0          1      )       (  0.0000000 )

 cart.    s( 3) = ( -0.5000000 -0.8660254  0.0000000 )    f =( -0.2500000 )
                  (  0.8660254 -0.5000000  0.0000000 )       ( -0.4330127 )
                  (  0.0000000  0.0000000  1.0000000 )       (  0.0000000 )


      isym =  4     120 deg rotation - cryst. axis [0,0,-1]      

 cryst.   s( 4) = (    -1         -1          0      )    f =(  0.0000000 )
                  (     1          0          0      )       ( -0.5000000 )
                  (     0          0          1      )       (  0.0000000 )

 cart.    s( 4) = ( -0.5000000  0.8660254  0.0000000 )    f =(  0.2500000 )
                  ( -0.8660254 -0.5000000  0.0000000 )       ( -0.4330127 )
                  (  0.0000000  0.0000000  1.0000000 )       (  0.0000000 )


      isym =  5     180 deg rotation - cryst. axis [0,1,0]       

 cryst.   s( 5) = (    -1         -1          0      )    f =(  0.0000000 )
                  (     0          1          0      )       ( -0.5000000 )
                  (     0          0         -1      )       (  0.0000000 )

 cart.    s( 5) = ( -0.5000000 -0.8660254  0.0000000 )    f =(  0.2500000 )
                  ( -0.8660254  0.5000000  0.0000000 )       ( -0.4330127 )
                  (  0.0000000  0.0000000 -1.0000000 )       (  0.0000000 )


      isym =  6     180 deg rotation - cryst. axis [1,1,0]       

 cryst.   s( 6) = (     0          1          0      )    f =(  0.5000000 )
                  (     1          0          0      )       (  0.5000000 )
                  (     0          0         -1      )       (  0.0000000 )

 cart.    s( 6) = ( -0.5000000  0.8660254  0.0000000 )    f =(  0.2500000 )
                  (  0.8660254  0.5000000  0.0000000 )       (  0.4330127 )
                  (  0.0000000  0.0000000 -1.0000000 )       (  0.0000000 )


      isym =  7     inversion                                    

 cryst.   s( 7) = (    -1          0          0      )
                  (     0         -1          0      )
                  (     0          0         -1      )

 cart.    s( 7) = ( -1.0000000  0.0000000  0.0000000 )
                  (  0.0000000 -1.0000000  0.0000000 )
                  (  0.0000000  0.0000000 -1.0000000 )


      isym =  8     180 deg rotation - cart. axis [1,0,0]        

 cryst.   s( 8) = (     1          0          0      )
                  (    -1         -1          0      )
                  (     0          0         -1      )

 cart.    s( 8) = (  1.0000000  0.0000000  0.0000000 )
                  (  0.0000000 -1.0000000  0.0000000 )
                  (  0.0000000  0.0000000 -1.0000000 )


      isym =  9     inv. 120 deg rotation - cryst. axis [0,0,1]  

 cryst.   s( 9) = (     0         -1          0      )    f =(  0.5000000 )
                  (     1          1          0      )       ( -0.5000000 )
                  (     0          0         -1      )       (  0.0000000 )

 cart.    s( 9) = (  0.5000000  0.8660254  0.0000000 )    f =(  0.7500000 )
                  ( -0.8660254  0.5000000  0.0000000 )       ( -0.4330127 )
                  (  0.0000000  0.0000000 -1.0000000 )       (  0.0000000 )


      isym = 10     inv. 120 deg rotation - cryst. axis [0,0,-1] 

 cryst.   s(10) = (     1          1          0      )    f =(  0.0000000 )
                  (    -1          0          0      )       (  0.5000000 )
                  (     0          0         -1      )       (  0.0000000 )

 cart.    s(10) = (  0.5000000 -0.8660254  0.0000000 )    f =( -0.2500000 )
                  (  0.8660254  0.5000000  0.0000000 )       (  0.4330127 )
                  (  0.0000000  0.0000000 -1.0000000 )       (  0.0000000 )


      isym = 11     inv. 180 deg rotation - cryst. axis [0,1,0]  

 cryst.   s(11) = (     1          1          0      )    f =(  0.0000000 )
                  (     0         -1          0      )       ( -0.5000000 )
                  (     0          0          1      )       (  0.0000000 )

 cart.    s(11) = (  0.5000000  0.8660254  0.0000000 )    f =(  0.2500000 )
                  (  0.8660254 -0.5000000  0.0000000 )       ( -0.4330127 )
                  (  0.0000000  0.0000000  1.0000000 )       (  0.0000000 )


      isym = 12     inv. 180 deg rotation - cryst. axis [1,1,0]  

 cryst.   s(12) = (     0         -1          0      )    f =( -0.5000000 )
                  (    -1          0          0      )       ( -0.5000000 )
                  (     0          0          1      )       (  0.0000000 )

 cart.    s(12) = (  0.5000000 -0.8660254  0.0000000 )    f =( -0.2500000 )
                  ( -0.8660254 -0.5000000  0.0000000 )       ( -0.4330127 )
                  (  0.0000000  0.0000000  1.0000000 )       (  0.0000000 )


     point group D_3d (-3m) 
     there are  6 classes
     the character table:

       E     2C3   3C2'  i     2S6   3s_d 
A_1g   1.00  1.00  1.00  1.00  1.00  1.00
A_2g   1.00  1.00 -1.00  1.00  1.00 -1.00
E_g    2.00 -1.00  0.00  2.00 -1.00  0.00
A_1u   1.00  1.00  1.00 -1.00 -1.00 -1.00
A_2u   1.00  1.00 -1.00 -1.00 -1.00  1.00
E_u    2.00 -1.00  0.00 -2.00  1.00  0.00

     the symmetry operations in each class and the name of the first element:

     E        1
          identity                                               
     2C3      3    4
          120 deg rotation - cryst. axis [0,0,1]                 
     3C2'     5    6    8
          180 deg rotation - cryst. axis [0,1,0]                 
     i        7
          inversion                                              
     2S6      9   10
          inv. 120 deg rotation - cryst. axis [0,0,1]            
     3s_d     2   11   12
          inv. 180 deg rotation - cart. axis [1,0,0]             

   Cartesian axes

     site n.     atom                  positions (alat units)
         1           C   tau(   1) = (   0.5000000   0.5773503  -0.0938425  )
         2           C   tau(   2) = (  -0.0000000   0.2886751   0.0938425  )
         3           F   tau(   3) = (   0.5000000   0.5773503  -0.6234719  )
         4           F   tau(   4) = (  -0.0000000   0.2886751   0.6234719  )

   Crystallographic axes

     site n.     atom                  positions (cryst. coord.)
         1           C   tau(   1) = (  0.8333333  0.6666667 -0.0132153  )
         2           C   tau(   2) = (  0.1666667  0.3333333  0.0132153  )
         3           F   tau(   3) = (  0.8333333  0.6666667 -0.0877999  )
         4           F   tau(   4) = (  0.1666667  0.3333333  0.0877999  )

     number of k points=   342  Marzari-Vanderbilt smearing, width (Ry)=  0.0010
                       cart. coord. in units 2pi/alat
        k(    1) = (   0.0000000   0.0000000   0.0000000), wk =   0.0061728
        k(    2) = (   0.0000000   0.5132002   0.0000000), wk =   0.0000000
        k(    3) = (   0.0000000   0.0641500   0.0000000), wk =   0.0061728
        k(    4) = (   0.0000000   0.5773503   0.0000000), wk =   0.0000000
        k(    5) = (   0.0000000   0.1283001   0.0000000), wk =   0.0061728
        k(    6) = (   0.0000000   0.6415003   0.0000000), wk =   0.0000000
        k(    7) = (   0.0000000   0.1924501   0.0000000), wk =   0.0061728
        k(    8) = (   0.0000000   0.7056503   0.0000000), wk =   0.0000000
        k(    9) = (   0.0000000   0.2566001   0.0000000), wk =   0.0061728
        k(   10) = (   0.0000000   0.7698004   0.0000000), wk =   0.0000000
        k(   11) = (   0.0000000   0.3207501   0.0000000), wk =   0.0061728
        k(   12) = (   0.0000000   0.8339504   0.0000000), wk =   0.0000000
        k(   13) = (   0.0000000   0.3849002   0.0000000), wk =   0.0061728
        k(   14) = (   0.0000000   0.8981004   0.0000000), wk =   0.0000000
        k(   15) = (   0.0000000   0.4490502   0.0000000), wk =   0.0061728
        k(   16) = (   0.0000000   0.9622504   0.0000000), wk =   0.0000000
        k(   17) = (   0.0000000   0.5132002   0.0000000), wk =   0.0061728
        k(   18) = (   0.0000000   1.0264005   0.0000000), wk =   0.0000000
        k(   19) = (   0.0000000  -0.5773503   0.0000000), wk =   0.0061728
        k(   20) = (   0.0000000  -0.0641500   0.0000000), wk =   0.0000000
        k(   21) = (   0.0555556   0.0962250   0.0000000), wk =   0.0123457
        k(   22) = (   0.0555556   0.6094253   0.0000000), wk =   0.0000000
        k(   23) = (   0.0555556   0.1603751   0.0000000), wk =   0.0123457
        k(   24) = (   0.0555556   0.6735753   0.0000000), wk =   0.0000000
        k(   25) = (   0.0555556   0.2245251   0.0000000), wk =   0.0123457
        k(   26) = (   0.0555556   0.7377253   0.0000000), wk =   0.0000000
        k(   27) = (   0.0555556   0.2886751   0.0000000), wk =   0.0123457
        k(   28) = (   0.0555556   0.8018754   0.0000000), wk =   0.0000000
        k(   29) = (   0.0555556   0.3528252   0.0000000), wk =   0.0123457
        k(   30) = (   0.0555556   0.8660254   0.0000000), wk =   0.0000000
        k(   31) = (   0.0555556   0.4169752   0.0000000), wk =   0.0123457
        k(   32) = (   0.0555556   0.9301754   0.0000000), wk =   0.0000000
        k(   33) = (   0.0555556   0.4811252   0.0000000), wk =   0.0123457
        k(   34) = (   0.0555556   0.9943255   0.0000000), wk =   0.0000000
        k(   35) = (   0.0555556   0.5452753   0.0000000), wk =   0.0123457
        k(   36) = (   0.0555556   1.0584755   0.0000000), wk =   0.0000000
        k(   37) = (   0.1111111   0.1924501   0.0000000), wk =   0.0123457
        k(   38) = (   0.1111111   0.7056503   0.0000000), wk =   0.0000000
        k(   39) = (   0.1111111   0.2566001   0.0000000), wk =   0.0123457
        k(   40) = (   0.1111111   0.7698004   0.0000000), wk =   0.0000000
        k(   41) = (   0.1111111   0.3207501   0.0000000), wk =   0.0123457
        k(   42) = (   0.1111111   0.8339504   0.0000000), wk =   0.0000000
        k(   43) = (   0.1111111   0.3849002   0.0000000), wk =   0.0123457
        k(   44) = (   0.1111111   0.8981004   0.0000000), wk =   0.0000000
        k(   45) = (   0.1111111   0.4490502   0.0000000), wk =   0.0123457
        k(   46) = (   0.1111111   0.9622504   0.0000000), wk =   0.0000000
        k(   47) = (   0.1111111   0.5132002   0.0000000), wk =   0.0123457
        k(   48) = (   0.1111111   1.0264005   0.0000000), wk =   0.0000000
        k(   49) = (   0.1111111   0.5773503   0.0000000), wk =   0.0123457
        k(   50) = (   0.1111111   1.0905505   0.0000000), wk =   0.0000000
        k(   51) = (   0.1666667   0.2886751   0.0000000), wk =   0.0123457
        k(   52) = (   0.1666667   0.8018754   0.0000000), wk =   0.0000000
        k(   53) = (   0.1666667   0.3528252   0.0000000), wk =   0.0123457
        k(   54) = (   0.1666667   0.8660254   0.0000000), wk =   0.0000000
        k(   55) = (   0.1666667   0.4169752   0.0000000), wk =   0.0123457
        k(   56) = (   0.1666667   0.9301754   0.0000000), wk =   0.0000000
        k(   57) = (   0.1666667   0.4811252   0.0000000), wk =   0.0123457
        k(   58) = (   0.1666667   0.9943255   0.0000000), wk =   0.0000000
        k(   59) = (   0.1666667   0.5452753   0.0000000), wk =   0.0123457
        k(   60) = (   0.1666667   1.0584755   0.0000000), wk =   0.0000000
        k(   61) = (   0.2222222   0.3849002   0.0000000), wk =   0.0123457
        k(   62) = (   0.2222222   0.8981004   0.0000000), wk =   0.0000000
        k(   63) = (   0.2222222   0.4490502   0.0000000), wk =   0.0123457
        k(   64) = (   0.2222222   0.9622504   0.0000000), wk =   0.0000000
        k(   65) = (   0.2222222   0.5132002   0.0000000), wk =   0.0123457
        k(   66) = (   0.2222222   1.0264005   0.0000000), wk =   0.0000000
        k(   67) = (   0.2222222   0.5773503   0.0000000), wk =   0.0123457
        k(   68) = (   0.2222222   1.0905505   0.0000000), wk =   0.0000000
        k(   69) = (   0.2777778   0.4811252   0.0000000), wk =   0.0123457
        k(   70) = (   0.2777778   0.9943255   0.0000000), wk =   0.0000000
        k(   71) = (   0.2777778   0.5452753   0.0000000), wk =   0.0123457
        k(   72) = (   0.2777778   1.0584755   0.0000000), wk =   0.0000000
        k(   73) = (   0.3333333   0.5773503   0.0000000), wk =   0.0123457
        k(   74) = (   0.3333333   1.0905505   0.0000000), wk =   0.0000000
        k(   75) = (  -0.0555556  -0.0320750   0.0000000), wk =   0.0123457
        k(   76) = (  -0.0555556   0.4811252   0.0000000), wk =   0.0000000
        k(   77) = (  -0.0555556   0.0320750   0.0000000), wk =   0.0123457
        k(   78) = (  -0.0555556   0.5452753   0.0000000), wk =   0.0000000
        k(   79) = (   0.0000000  -0.0641500   0.0000000), wk =   0.0061728
        k(   80) = (   0.0000000   0.4490502   0.0000000), wk =   0.0000000
        k(   81) = (  -0.1111111  -0.0641500   0.0000000), wk =   0.0123457
        k(   82) = (  -0.1111111   0.4490502   0.0000000), wk =   0.0000000
        k(   83) = (  -0.1111111   0.0641500   0.0000000), wk =   0.0123457
        k(   84) = (  -0.1111111   0.5773503   0.0000000), wk =   0.0000000
        k(   85) = (   0.0000000  -0.1283001   0.0000000), wk =   0.0061728
        k(   86) = (   0.0000000   0.3849002   0.0000000), wk =   0.0000000
        k(   87) = (  -0.1666667  -0.0962250   0.0000000), wk =   0.0123457
        k(   88) = (  -0.1666667   0.4169752   0.0000000), wk =   0.0000000
        k(   89) = (  -0.1666667   0.0962250   0.0000000), wk =   0.0123457
        k(   90) = (  -0.1666667   0.6094253   0.0000000), wk =   0.0000000
        k(   91) = (   0.0000000  -0.1924501   0.0000000), wk =   0.0061728
        k(   92) = (   0.0000000   0.3207501   0.0000000), wk =   0.0000000
        k(   93) = (  -0.2222222  -0.1283001   0.0000000), wk =   0.0123457
        k(   94) = (  -0.2222222   0.3849002   0.0000000), wk =   0.0000000
        k(   95) = (  -0.2222222   0.1283001   0.0000000), wk =   0.0123457
        k(   96) = (  -0.2222222   0.6415003   0.0000000), wk =   0.0000000
        k(   97) = (   0.0000000  -0.2566001   0.0000000), wk =   0.0061728
        k(   98) = (   0.0000000   0.2566001   0.0000000), wk =   0.0000000
        k(   99) = (  -0.2777778  -0.1603751   0.0000000), wk =   0.0123457
        k(  100) = (  -0.2777778   0.3528252   0.0000000), wk =   0.0000000
        k(  101) = (  -0.2777778   0.1603751   0.0000000), wk =   0.0123457
        k(  102) = (  -0.2777778   0.6735753   0.0000000), wk =   0.0000000
        k(  103) = (   0.0000000  -0.3207501   0.0000000), wk =   0.0061728
        k(  104) = (   0.0000000   0.1924501   0.0000000), wk =   0.0000000
        k(  105) = (  -0.3333333  -0.1924501   0.0000000), wk =   0.0123457
        k(  106) = (  -0.3333333   0.3207501   0.0000000), wk =   0.0000000
        k(  107) = (  -0.3333333   0.1924501   0.0000000), wk =   0.0123457
        k(  108) = (  -0.3333333   0.7056503   0.0000000), wk =   0.0000000
        k(  109) = (   0.0000000  -0.3849002   0.0000000), wk =   0.0061728
        k(  110) = (   0.0000000   0.1283001   0.0000000), wk =   0.0000000
        k(  111) = (  -0.3888889  -0.2245251   0.0000000), wk =   0.0123457
        k(  112) = (  -0.3888889   0.2886751   0.0000000), wk =   0.0000000
        k(  113) = (  -0.3888889   0.2245251   0.0000000), wk =   0.0123457
        k(  114) = (  -0.3888889   0.7377253   0.0000000), wk =   0.0000000
        k(  115) = (   0.0000000  -0.4490502   0.0000000), wk =   0.0061728
        k(  116) = (   0.0000000   0.0641500   0.0000000), wk =   0.0000000
        k(  117) = (  -0.4444444  -0.2566001   0.0000000), wk =   0.0123457
        k(  118) = (  -0.4444444   0.2566001   0.0000000), wk =   0.0000000
        k(  119) = (  -0.4444444   0.2566001   0.0000000), wk =   0.0123457
        k(  120) = (  -0.4444444   0.7698004   0.0000000), wk =   0.0000000
        k(  121) = (   0.0000000  -0.5132002   0.0000000), wk =   0.0061728
        k(  122) = (   0.0000000   0.0000000   0.0000000), wk =   0.0000000
        k(  123) = (   0.5000000   0.2886751   0.0000000), wk =   0.0123457
        k(  124) = (   0.5000000   0.8018754   0.0000000), wk =   0.0000000
        k(  125) = (  -0.1111111  -0.0000000   0.0000000), wk =   0.0123457
        k(  126) = (  -0.1111111   0.5132002   0.0000000), wk =   0.0000000
        k(  127) = (   0.0555556  -0.0962250   0.0000000), wk =   0.0123457
        k(  128) = (   0.0555556   0.4169752   0.0000000), wk =   0.0000000
        k(  129) = (  -0.1666667  -0.0320750   0.0000000), wk =   0.0123457
        k(  130) = (  -0.1666667   0.4811252   0.0000000), wk =   0.0000000
        k(  131) = (   0.1111111  -0.1283001   0.0000000), wk =   0.0123457
        k(  132) = (   0.1111111   0.3849002   0.0000000), wk =   0.0000000
        k(  133) = (  -0.1666667   0.0320750   0.0000000), wk =   0.0123457
        k(  134) = (  -0.1666667   0.5452753   0.0000000), wk =   0.0000000
        k(  135) = (   0.1111111   0.1283001   0.0000000), wk =   0.0123457
        k(  136) = (   0.1111111   0.6415003   0.0000000), wk =   0.0000000
        k(  137) = (  -0.0555556  -0.1603751   0.0000000), wk =   0.0123457
        k(  138) = (  -0.0555556   0.3528252   0.0000000), wk =   0.0000000
        k(  139) = (  -0.2222222  -0.0641500   0.0000000), wk =   0.0123457
        k(  140) = (  -0.2222222   0.4490502   0.0000000), wk =   0.0000000
        k(  141) = (   0.1666667  -0.1603751   0.0000000), wk =   0.0123457
        k(  142) = (   0.1666667   0.3528252   0.0000000), wk =   0.0000000
        k(  143) = (  -0.2222222   0.0641500   0.0000000), wk =   0.0123457
        k(  144) = (  -0.2222222   0.5773503   0.0000000), wk =   0.0000000
        k(  145) = (   0.1666667   0.1603751   0.0000000), wk =   0.0123457
        k(  146) = (   0.1666667   0.6735753   0.0000000), wk =   0.0000000
        k(  147) = (  -0.0555556  -0.2245251   0.0000000), wk =   0.0123457
        k(  148) = (  -0.0555556   0.2886751   0.0000000), wk =   0.0000000
        k(  149) = (  -0.2777778  -0.0962250   0.0000000), wk =   0.0123457
        k(  150) = (  -0.2777778   0.4169752   0.0000000), wk =   0.0000000
        k(  151) = (   0.2222222  -0.1924501   0.0000000), wk =   0.0123457
        k(  152) = (   0.2222222   0.3207501   0.0000000), wk =   0.0000000
        k(  153) = (  -0.2777778   0.0962250   0.0000000), wk =   0.0123457
        k(  154) = (  -0.2777778   0.6094253   0.0000000), wk =   0.0000000
        k(  155) = (   0.2222222   0.1924501   0.0000000), wk =   0.0123457
        k(  156) = (   0.2222222   0.7056503   0.0000000), wk =   0.0000000
        k(  157) = (  -0.0555556  -0.2886751   0.0000000), wk =   0.0123457
        k(  158) = (  -0.0555556   0.2245251   0.0000000), wk =   0.0000000
        k(  159) = (  -0.3333333  -0.1283001   0.0000000), wk =   0.0123457
        k(  160) = (  -0.3333333   0.3849002   0.0000000), wk =   0.0000000
        k(  161) = (   0.2777778  -0.2245251   0.0000000), wk =   0.0123457
        k(  162) = (   0.2777778   0.2886751   0.0000000), wk =   0.0000000
        k(  163) = (  -0.3333333   0.1283001   0.0000000), wk =   0.0123457
        k(  164) = (  -0.3333333   0.6415003   0.0000000), wk =   0.0000000
        k(  165) = (   0.2777778   0.2245251   0.0000000), wk =   0.0123457
        k(  166) = (   0.2777778   0.7377253   0.0000000), wk =   0.0000000
        k(  167) = (  -0.0555556  -0.3528252   0.0000000), wk =   0.0123457
        k(  168) = (  -0.0555556   0.1603751   0.0000000), wk =   0.0000000
        k(  169) = (  -0.3888889  -0.1603751   0.0000000), wk =   0.0123457
        k(  170) = (  -0.3888889   0.3528252   0.0000000), wk =   0.0000000
        k(  171) = (   0.3333333  -0.2566001   0.0000000), wk =   0.0123457
        k(  172) = (   0.3333333   0.2566001   0.0000000), wk =   0.0000000
        k(  173) = (  -0.3888889   0.1603751   0.0000000), wk =   0.0123457
        k(  174) = (  -0.3888889   0.6735753   0.0000000), wk =   0.0000000
        k(  175) = (   0.3333333   0.2566001   0.0000000), wk =   0.0123457
        k(  176) = (   0.3333333   0.7698004   0.0000000), wk =   0.0000000
        k(  177) = (  -0.0555556  -0.4169752   0.0000000), wk =   0.0123457
        k(  178) = (  -0.0555556   0.0962250   0.0000000), wk =   0.0000000
        k(  179) = (  -0.4444444  -0.1924501   0.0000000), wk =   0.0123457
        k(  180) = (  -0.4444444   0.3207501   0.0000000), wk =   0.0000000
        k(  181) = (   0.3888889  -0.2886751   0.0000000), wk =   0.0123457
        k(  182) = (   0.3888889   0.2245251   0.0000000), wk =   0.0000000
        k(  183) = (  -0.4444444   0.1924501   0.0000000), wk =   0.0123457
        k(  184) = (  -0.4444444   0.7056503   0.0000000), wk =   0.0000000
        k(  185) = (   0.3888889   0.2886751   0.0000000), wk =   0.0123457
        k(  186) = (   0.3888889   0.8018754   0.0000000), wk =   0.0000000
        k(  187) = (  -0.0555556  -0.4811252   0.0000000), wk =   0.0123457
        k(  188) = (  -0.0555556   0.0320750   0.0000000), wk =   0.0000000
        k(  189) = (  -0.5000000  -0.2245251   0.0000000), wk =   0.0123457
        k(  190) = (  -0.5000000   0.2886751   0.0000000), wk =   0.0000000
        k(  191) = (   0.4444444  -0.3207501   0.0000000), wk =   0.0123457
        k(  192) = (   0.4444444   0.1924501   0.0000000), wk =   0.0000000
        k(  193) = (  -0.5000000   0.2245251   0.0000000), wk =   0.0123457
        k(  194) = (  -0.5000000   0.7377253   0.0000000), wk =   0.0000000
        k(  195) = (   0.4444444   0.3207501   0.0000000), wk =   0.0123457
        k(  196) = (   0.4444444   0.8339504   0.0000000), wk =   0.0000000
        k(  197) = (  -0.0555556  -0.5452753   0.0000000), wk =   0.0123457
        k(  198) = (  -0.0555556  -0.0320750   0.0000000), wk =   0.0000000
        k(  199) = (  -0.2222222  -0.0000000   0.0000000), wk =   0.0123457
        k(  200) = (  -0.2222222   0.5132002   0.0000000), wk =   0.0000000
        k(  201) = (   0.1111111  -0.1924501   0.0000000), wk =   0.0123457
        k(  202) = (   0.1111111   0.3207501   0.0000000), wk =   0.0000000
        k(  203) = (  -0.2777778  -0.0320750   0.0000000), wk =   0.0123457
        k(  204) = (  -0.2777778   0.4811252   0.0000000), wk =   0.0000000
        k(  205) = (   0.1666667  -0.2245251   0.0000000), wk =   0.0123457
        k(  206) = (   0.1666667   0.2886751   0.0000000), wk =   0.0000000
        k(  207) = (  -0.2777778   0.0320750   0.0000000), wk =   0.0123457
        k(  208) = (  -0.2777778   0.5452753   0.0000000), wk =   0.0000000
        k(  209) = (   0.1666667   0.2245251   0.0000000), wk =   0.0123457
        k(  210) = (   0.1666667   0.7377253   0.0000000), wk =   0.0000000
        k(  211) = (  -0.1111111  -0.2566001   0.0000000), wk =   0.0123457
        k(  212) = (  -0.1111111   0.2566001   0.0000000), wk =   0.0000000
        k(  213) = (  -0.3333333  -0.0641500   0.0000000), wk =   0.0123457
        k(  214) = (  -0.3333333   0.4490502   0.0000000), wk =   0.0000000
        k(  215) = (   0.2222222  -0.2566001   0.0000000), wk =   0.0123457
        k(  216) = (   0.2222222   0.2566001   0.0000000), wk =   0.0000000
        k(  217) = (  -0.3333333   0.0641500   0.0000000), wk =   0.0123457
        k(  218) = (  -0.3333333   0.5773503   0.0000000), wk =   0.0000000
        k(  219) = (   0.2222222   0.2566001   0.0000000), wk =   0.0123457
        k(  220) = (   0.2222222   0.7698004   0.0000000), wk =   0.0000000
        k(  221) = (  -0.1111111  -0.3207501   0.0000000), wk =   0.0123457
        k(  222) = (  -0.1111111   0.1924501   0.0000000), wk =   0.0000000
        k(  223) = (  -0.3888889  -0.0962250   0.0000000), wk =   0.0123457
        k(  224) = (  -0.3888889   0.4169752   0.0000000), wk =   0.0000000
        k(  225) = (   0.2777778  -0.2886751   0.0000000), wk =   0.0123457
        k(  226) = (   0.2777778   0.2245251   0.0000000), wk =   0.0000000
        k(  227) = (  -0.3888889   0.0962250   0.0000000), wk =   0.0123457
        k(  228) = (  -0.3888889   0.6094253   0.0000000), wk =   0.0000000
        k(  229) = (   0.2777778   0.2886751   0.0000000), wk =   0.0123457
        k(  230) = (   0.2777778   0.8018754   0.0000000), wk =   0.0000000
        k(  231) = (  -0.1111111  -0.3849002   0.0000000), wk =   0.0123457
        k(  232) = (  -0.1111111   0.1283001   0.0000000), wk =   0.0000000
        k(  233) = (  -0.4444444  -0.1283001   0.0000000), wk =   0.0123457
        k(  234) = (  -0.4444444   0.3849002   0.0000000), wk =   0.0000000
        k(  235) = (   0.3333333  -0.3207501   0.0000000), wk =   0.0123457
        k(  236) = (   0.3333333   0.1924501   0.0000000), wk =   0.0000000
        k(  237) = (  -0.4444444   0.1283001   0.0000000), wk =   0.0123457
        k(  238) = (  -0.4444444   0.6415003   0.0000000), wk =   0.0000000
        k(  239) = (   0.3333333   0.3207501   0.0000000), wk =   0.0123457
        k(  240) = (   0.3333333   0.8339504   0.0000000), wk =   0.0000000
        k(  241) = (  -0.1111111  -0.4490502   0.0000000), wk =   0.0123457
        k(  242) = (  -0.1111111   0.0641500   0.0000000), wk =   0.0000000
        k(  243) = (  -0.5000000  -0.1603751   0.0000000), wk =   0.0123457
        k(  244) = (  -0.5000000   0.3528252   0.0000000), wk =   0.0000000
        k(  245) = (   0.3888889  -0.3528252   0.0000000), wk =   0.0123457
        k(  246) = (   0.3888889   0.1603751   0.0000000), wk =   0.0000000
        k(  247) = (  -0.5000000   0.1603751   0.0000000), wk =   0.0123457
        k(  248) = (  -0.5000000   0.6735753   0.0000000), wk =   0.0000000
        k(  249) = (   0.3888889   0.3528252   0.0000000), wk =   0.0123457
        k(  250) = (   0.3888889   0.8660254   0.0000000), wk =   0.0000000
        k(  251) = (  -0.1111111  -0.5132002   0.0000000), wk =   0.0123457
        k(  252) = (  -0.1111111   0.0000000   0.0000000), wk =   0.0000000
        k(  253) = (  -0.5555556  -0.1924501   0.0000000), wk =   0.0123457
        k(  254) = (  -0.5555556   0.3207501   0.0000000), wk =   0.0000000
        k(  255) = (   0.4444444  -0.3849002   0.0000000), wk =   0.0123457
        k(  256) = (   0.4444444   0.1283001   0.0000000), wk =   0.0000000
        k(  257) = (  -0.3333333  -0.0000000   0.0000000), wk =   0.0123457
        k(  258) = (  -0.3333333   0.5132002   0.0000000), wk =   0.0000000
        k(  259) = (   0.1666667  -0.2886751   0.0000000), wk =   0.0123457
        k(  260) = (   0.1666667   0.2245251   0.0000000), wk =   0.0000000
        k(  261) = (  -0.3888889  -0.0320750   0.0000000), wk =   0.0123457
        k(  262) = (  -0.3888889   0.4811252   0.0000000), wk =   0.0000000
        k(  263) = (   0.2222222  -0.3207501   0.0000000), wk =   0.0123457
        k(  264) = (   0.2222222   0.1924501   0.0000000), wk =   0.0000000
        k(  265) = (  -0.3888889   0.0320750   0.0000000), wk =   0.0123457
        k(  266) = (  -0.3888889   0.5452753   0.0000000), wk =   0.0000000
        k(  267) = (   0.2222222   0.3207501   0.0000000), wk =   0.0123457
        k(  268) = (   0.2222222   0.8339504   0.0000000), wk =   0.0000000
        k(  269) = (  -0.1666667  -0.3528252   0.0000000), wk =   0.0123457
        k(  270) = (  -0.1666667   0.1603751   0.0000000), wk =   0.0000000
        k(  271) = (  -0.4444444  -0.0641500   0.0000000), wk =   0.0123457
        k(  272) = (  -0.4444444   0.4490502   0.0000000), wk =   0.0000000
        k(  273) = (   0.2777778  -0.3528252   0.0000000), wk =   0.0123457
        k(  274) = (   0.2777778   0.1603751   0.0000000), wk =   0.0000000
        k(  275) = (  -0.4444444   0.0641500   0.0000000), wk =   0.0123457
        k(  276) = (  -0.4444444   0.5773503   0.0000000), wk =   0.0000000
        k(  277) = (   0.2777778   0.3528252   0.0000000), wk =   0.0123457
        k(  278) = (   0.2777778   0.8660254   0.0000000), wk =   0.0000000
        k(  279) = (  -0.1666667  -0.4169752   0.0000000), wk =   0.0123457
        k(  280) = (  -0.1666667   0.0962250   0.0000000), wk =   0.0000000
        k(  281) = (  -0.5000000  -0.0962250   0.0000000), wk =   0.0123457
        k(  282) = (  -0.5000000   0.4169752   0.0000000), wk =   0.0000000
        k(  283) = (   0.3333333  -0.3849002   0.0000000), wk =   0.0123457
        k(  284) = (   0.3333333   0.1283001   0.0000000), wk =   0.0000000
        k(  285) = (  -0.5000000   0.0962250   0.0000000), wk =   0.0123457
        k(  286) = (  -0.5000000   0.6094253   0.0000000), wk =   0.0000000
        k(  287) = (   0.3333333   0.3849002   0.0000000), wk =   0.0123457
        k(  288) = (   0.3333333   0.8981004   0.0000000), wk =   0.0000000
        k(  289) = (  -0.1666667  -0.4811252   0.0000000), wk =   0.0123457
        k(  290) = (  -0.1666667   0.0320750   0.0000000), wk =   0.0000000
        k(  291) = (  -0.5555556  -0.1283001   0.0000000), wk =   0.0123457
        k(  292) = (  -0.5555556   0.3849002   0.0000000), wk =   0.0000000
        k(  293) = (   0.3888889  -0.4169752   0.0000000), wk =   0.0123457
        k(  294) = (   0.3888889   0.0962250   0.0000000), wk =   0.0000000
        k(  295) = (  -0.5555556   0.1283001   0.0000000), wk =   0.0123457
        k(  296) = (  -0.5555556   0.6415003   0.0000000), wk =   0.0000000
        k(  297) = (   0.3888889   0.4169752   0.0000000), wk =   0.0123457
        k(  298) = (   0.3888889   0.9301754   0.0000000), wk =   0.0000000
        k(  299) = (  -0.1666667  -0.5452753   0.0000000), wk =   0.0123457
        k(  300) = (  -0.1666667  -0.0320750   0.0000000), wk =   0.0000000
        k(  301) = (  -0.4444444  -0.0000000   0.0000000), wk =   0.0123457
        k(  302) = (  -0.4444444   0.5132002   0.0000000), wk =   0.0000000
        k(  303) = (   0.2222222  -0.3849002   0.0000000), wk =   0.0123457
        k(  304) = (   0.2222222   0.1283001   0.0000000), wk =   0.0000000
        k(  305) = (  -0.5000000  -0.0320750   0.0000000), wk =   0.0123457
        k(  306) = (  -0.5000000   0.4811252   0.0000000), wk =   0.0000000
        k(  307) = (   0.2777778  -0.4169752   0.0000000), wk =   0.0123457
        k(  308) = (   0.2777778   0.0962250   0.0000000), wk =   0.0000000
        k(  309) = (  -0.5000000   0.0320750   0.0000000), wk =   0.0123457
        k(  310) = (  -0.5000000   0.5452753   0.0000000), wk =   0.0000000
        k(  311) = (   0.2777778   0.4169752   0.0000000), wk =   0.0123457
        k(  312) = (   0.2777778   0.9301754   0.0000000), wk =   0.0000000
        k(  313) = (  -0.2222222  -0.4490502   0.0000000), wk =   0.0123457
        k(  314) = (  -0.2222222   0.0641500   0.0000000), wk =   0.0000000
        k(  315) = (  -0.5555556  -0.0641500   0.0000000), wk =   0.0123457
        k(  316) = (  -0.5555556   0.4490502   0.0000000), wk =   0.0000000
        k(  317) = (   0.3333333  -0.4490502   0.0000000), wk =   0.0123457
        k(  318) = (   0.3333333   0.0641500   0.0000000), wk =   0.0000000
        k(  319) = (  -0.5555556   0.0641500   0.0000000), wk =   0.0123457
        k(  320) = (  -0.5555556   0.5773503   0.0000000), wk =   0.0000000
        k(  321) = (   0.3333333   0.4490502   0.0000000), wk =   0.0123457
        k(  322) = (   0.3333333   0.9622504   0.0000000), wk =   0.0000000
        k(  323) = (  -0.2222222  -0.5132002   0.0000000), wk =   0.0123457
        k(  324) = (  -0.2222222   0.0000000   0.0000000), wk =   0.0000000
        k(  325) = (  -0.6111111  -0.0962250   0.0000000), wk =   0.0123457
        k(  326) = (  -0.6111111   0.4169752   0.0000000), wk =   0.0000000
        k(  327) = (   0.3888889  -0.4811252   0.0000000), wk =   0.0123457
        k(  328) = (   0.3888889   0.0320750   0.0000000), wk =   0.0000000
        k(  329) = (  -0.5555556  -0.0000000   0.0000000), wk =   0.0123457
        k(  330) = (  -0.5555556   0.5132002   0.0000000), wk =   0.0000000
        k(  331) = (   0.2777778  -0.4811252   0.0000000), wk =   0.0123457
        k(  332) = (   0.2777778   0.0320750   0.0000000), wk =   0.0000000
        k(  333) = (  -0.6111111  -0.0320750   0.0000000), wk =   0.0123457
        k(  334) = (  -0.6111111   0.4811252   0.0000000), wk =   0.0000000
        k(  335) = (   0.3333333  -0.5132002   0.0000000), wk =   0.0123457
        k(  336) = (   0.3333333   0.0000000   0.0000000), wk =   0.0000000
        k(  337) = (  -0.6111111   0.0320750   0.0000000), wk =   0.0123457
        k(  338) = (  -0.6111111   0.5452753   0.0000000), wk =   0.0000000
        k(  339) = (   0.3333333   0.5132002   0.0000000), wk =   0.0123457
        k(  340) = (   0.3333333   1.0264005   0.0000000), wk =   0.0000000
        k(  341) = (  -0.2777778  -0.5452753   0.0000000), wk =   0.0123457
        k(  342) = (  -0.2777778  -0.0320750   0.0000000), wk =   0.0000000

                       cryst. coord.
        k(    1) = (   0.0000000   0.0000000   0.0000000), wk =   0.0061728
        k(    2) = (   0.0000000   0.4444444   0.0000000), wk =   0.0000000
        k(    3) = (   0.0000000   0.0555556   0.0000000), wk =   0.0061728
        k(    4) = (   0.0000000   0.5000000   0.0000000), wk =   0.0000000
        k(    5) = (   0.0000000   0.1111111   0.0000000), wk =   0.0061728
        k(    6) = (   0.0000000   0.5555556   0.0000000), wk =   0.0000000
        k(    7) = (   0.0000000   0.1666667   0.0000000), wk =   0.0061728
        k(    8) = (   0.0000000   0.6111111   0.0000000), wk =   0.0000000
        k(    9) = (   0.0000000   0.2222222   0.0000000), wk =   0.0061728
        k(   10) = (   0.0000000   0.6666667   0.0000000), wk =   0.0000000
        k(   11) = (   0.0000000   0.2777778   0.0000000), wk =   0.0061728
        k(   12) = (   0.0000000   0.7222222   0.0000000), wk =   0.0000000
        k(   13) = (   0.0000000   0.3333333   0.0000000), wk =   0.0061728
        k(   14) = (   0.0000000   0.7777778   0.0000000), wk =   0.0000000
        k(   15) = (   0.0000000   0.3888889   0.0000000), wk =   0.0061728
        k(   16) = (   0.0000000   0.8333333   0.0000000), wk =   0.0000000
        k(   17) = (   0.0000000   0.4444444   0.0000000), wk =   0.0061728
        k(   18) = (   0.0000000   0.8888889   0.0000000), wk =   0.0000000
        k(   19) = (   0.0000000  -0.5000000   0.0000000), wk =   0.0061728
        k(   20) = (   0.0000000  -0.0555556   0.0000000), wk =   0.0000000
        k(   21) = (   0.0555556   0.0555556   0.0000000), wk =   0.0123457
        k(   22) = (   0.0555556   0.5000000   0.0000000), wk =   0.0000000
        k(   23) = (   0.0555556   0.1111111   0.0000000), wk =   0.0123457
        k(   24) = (   0.0555556   0.5555556   0.0000000), wk =   0.0000000
        k(   25) = (   0.0555556   0.1666667   0.0000000), wk =   0.0123457
        k(   26) = (   0.0555556   0.6111111   0.0000000), wk =   0.0000000
        k(   27) = (   0.0555556   0.2222222   0.0000000), wk =   0.0123457
        k(   28) = (   0.0555556   0.6666667   0.0000000), wk =   0.0000000
        k(   29) = (   0.0555556   0.2777778   0.0000000), wk =   0.0123457
        k(   30) = (   0.0555556   0.7222222   0.0000000), wk =   0.0000000
        k(   31) = (   0.0555556   0.3333333   0.0000000), wk =   0.0123457
        k(   32) = (   0.0555556   0.7777778   0.0000000), wk =   0.0000000
        k(   33) = (   0.0555556   0.3888889   0.0000000), wk =   0.0123457
        k(   34) = (   0.0555556   0.8333333   0.0000000), wk =   0.0000000
        k(   35) = (   0.0555556   0.4444444   0.0000000), wk =   0.0123457
        k(   36) = (   0.0555556   0.8888889   0.0000000), wk =   0.0000000
        k(   37) = (   0.1111111   0.1111111   0.0000000), wk =   0.0123457
        k(   38) = (   0.1111111   0.5555556   0.0000000), wk =   0.0000000
        k(   39) = (   0.1111111   0.1666667   0.0000000), wk =   0.0123457
        k(   40) = (   0.1111111   0.6111111   0.0000000), wk =   0.0000000
        k(   41) = (   0.1111111   0.2222222   0.0000000), wk =   0.0123457
        k(   42) = (   0.1111111   0.6666667   0.0000000), wk =   0.0000000
        k(   43) = (   0.1111111   0.2777778   0.0000000), wk =   0.0123457
        k(   44) = (   0.1111111   0.7222222   0.0000000), wk =   0.0000000
        k(   45) = (   0.1111111   0.3333333   0.0000000), wk =   0.0123457
        k(   46) = (   0.1111111   0.7777778   0.0000000), wk =   0.0000000
        k(   47) = (   0.1111111   0.3888889   0.0000000), wk =   0.0123457
        k(   48) = (   0.1111111   0.8333333   0.0000000), wk =   0.0000000
        k(   49) = (   0.1111111   0.4444444   0.0000000), wk =   0.0123457
        k(   50) = (   0.1111111   0.8888889   0.0000000), wk =   0.0000000
        k(   51) = (   0.1666667   0.1666667   0.0000000), wk =   0.0123457
        k(   52) = (   0.1666667   0.6111111   0.0000000), wk =   0.0000000
        k(   53) = (   0.1666667   0.2222222   0.0000000), wk =   0.0123457
        k(   54) = (   0.1666667   0.6666667   0.0000000), wk =   0.0000000
        k(   55) = (   0.1666667   0.2777778   0.0000000), wk =   0.0123457
        k(   56) = (   0.1666667   0.7222222   0.0000000), wk =   0.0000000
        k(   57) = (   0.1666667   0.3333333   0.0000000), wk =   0.0123457
        k(   58) = (   0.1666667   0.7777778   0.0000000), wk =   0.0000000
        k(   59) = (   0.1666667   0.3888889   0.0000000), wk =   0.0123457
        k(   60) = (   0.1666667   0.8333333   0.0000000), wk =   0.0000000
        k(   61) = (   0.2222222   0.2222222   0.0000000), wk =   0.0123457
        k(   62) = (   0.2222222   0.6666667   0.0000000), wk =   0.0000000
        k(   63) = (   0.2222222   0.2777778   0.0000000), wk =   0.0123457
        k(   64) = (   0.2222222   0.7222222   0.0000000), wk =   0.0000000
        k(   65) = (   0.2222222   0.3333333   0.0000000), wk =   0.0123457
        k(   66) = (   0.2222222   0.7777778   0.0000000), wk =   0.0000000
        k(   67) = (   0.2222222   0.3888889   0.0000000), wk =   0.0123457
        k(   68) = (   0.2222222   0.8333333   0.0000000), wk =   0.0000000
        k(   69) = (   0.2777778   0.2777778   0.0000000), wk =   0.0123457
        k(   70) = (   0.2777778   0.7222222   0.0000000), wk =   0.0000000
        k(   71) = (   0.2777778   0.3333333   0.0000000), wk =   0.0123457
        k(   72) = (   0.2777778   0.7777778   0.0000000), wk =   0.0000000
        k(   73) = (   0.3333333   0.3333333   0.0000000), wk =   0.0123457
        k(   74) = (   0.3333333   0.7777778   0.0000000), wk =   0.0000000
        k(   75) = (  -0.0555556   0.0000000   0.0000000), wk =   0.0123457
        k(   76) = (  -0.0555556   0.4444444   0.0000000), wk =   0.0000000
        k(   77) = (  -0.0555556   0.0555556   0.0000000), wk =   0.0123457
        k(   78) = (  -0.0555556   0.5000000   0.0000000), wk =   0.0000000
        k(   79) = (   0.0000000  -0.0555556   0.0000000), wk =   0.0061728
        k(   80) = (   0.0000000   0.3888889   0.0000000), wk =   0.0000000
        k(   81) = (  -0.1111111   0.0000000   0.0000000), wk =   0.0123457
        k(   82) = (  -0.1111111   0.4444444   0.0000000), wk =   0.0000000
        k(   83) = (  -0.1111111   0.1111111   0.0000000), wk =   0.0123457
        k(   84) = (  -0.1111111   0.5555556   0.0000000), wk =   0.0000000
        k(   85) = (   0.0000000  -0.1111111   0.0000000), wk =   0.0061728
        k(   86) = (   0.0000000   0.3333333   0.0000000), wk =   0.0000000
        k(   87) = (  -0.1666667   0.0000000   0.0000000), wk =   0.0123457
        k(   88) = (  -0.1666667   0.4444444   0.0000000), wk =   0.0000000
        k(   89) = (  -0.1666667   0.1666667   0.0000000), wk =   0.0123457
        k(   90) = (  -0.1666667   0.6111111   0.0000000), wk =   0.0000000
        k(   91) = (   0.0000000  -0.1666667   0.0000000), wk =   0.0061728
        k(   92) = (   0.0000000   0.2777778   0.0000000), wk =   0.0000000
        k(   93) = (  -0.2222222   0.0000000   0.0000000), wk =   0.0123457
        k(   94) = (  -0.2222222   0.4444444   0.0000000), wk =   0.0000000
        k(   95) = (  -0.2222222   0.2222222   0.0000000), wk =   0.0123457
        k(   96) = (  -0.2222222   0.6666667   0.0000000), wk =   0.0000000
        k(   97) = (   0.0000000  -0.2222222   0.0000000), wk =   0.0061728
        k(   98) = (   0.0000000   0.2222222   0.0000000), wk =   0.0000000
        k(   99) = (  -0.2777778   0.0000000   0.0000000), wk =   0.0123457
        k(  100) = (  -0.2777778   0.4444444   0.0000000), wk =   0.0000000
        k(  101) = (  -0.2777778   0.2777778   0.0000000), wk =   0.0123457
        k(  102) = (  -0.2777778   0.7222222   0.0000000), wk =   0.0000000
        k(  103) = (   0.0000000  -0.2777778   0.0000000), wk =   0.0061728
        k(  104) = (   0.0000000   0.1666667   0.0000000), wk =   0.0000000
        k(  105) = (  -0.3333333   0.0000000   0.0000000), wk =   0.0123457
        k(  106) = (  -0.3333333   0.4444444   0.0000000), wk =   0.0000000
        k(  107) = (  -0.3333333   0.3333333   0.0000000), wk =   0.0123457
        k(  108) = (  -0.3333333   0.7777778   0.0000000), wk =   0.0000000
        k(  109) = (   0.0000000  -0.3333333   0.0000000), wk =   0.0061728
        k(  110) = (   0.0000000   0.1111111   0.0000000), wk =   0.0000000
        k(  111) = (  -0.3888889  -0.0000000   0.0000000), wk =   0.0123457
        k(  112) = (  -0.3888889   0.4444444   0.0000000), wk =   0.0000000
        k(  113) = (  -0.3888889   0.3888889   0.0000000), wk =   0.0123457
        k(  114) = (  -0.3888889   0.8333333   0.0000000), wk =   0.0000000
        k(  115) = (   0.0000000  -0.3888889   0.0000000), wk =   0.0061728
        k(  116) = (   0.0000000   0.0555556   0.0000000), wk =   0.0000000
        k(  117) = (  -0.4444444   0.0000000   0.0000000), wk =   0.0123457
        k(  118) = (  -0.4444444   0.4444444   0.0000000), wk =   0.0000000
        k(  119) = (  -0.4444444   0.4444444   0.0000000), wk =   0.0123457
        k(  120) = (  -0.4444444   0.8888889   0.0000000), wk =   0.0000000
        k(  121) = (   0.0000000  -0.4444444   0.0000000), wk =   0.0061728
        k(  122) = (   0.0000000   0.0000000   0.0000000), wk =   0.0000000
        k(  123) = (   0.5000000   0.0000000   0.0000000), wk =   0.0123457
        k(  124) = (   0.5000000   0.4444444   0.0000000), wk =   0.0000000
        k(  125) = (  -0.1111111   0.0555556   0.0000000), wk =   0.0123457
        k(  126) = (  -0.1111111   0.5000000   0.0000000), wk =   0.0000000
        k(  127) = (   0.0555556  -0.1111111   0.0000000), wk =   0.0123457
        k(  128) = (   0.0555556   0.3333333   0.0000000), wk =   0.0000000
        k(  129) = (  -0.1666667   0.0555556   0.0000000), wk =   0.0123457
        k(  130) = (  -0.1666667   0.5000000   0.0000000), wk =   0.0000000
        k(  131) = (   0.1111111  -0.1666667   0.0000000), wk =   0.0123457
        k(  132) = (   0.1111111   0.2777778   0.0000000), wk =   0.0000000
        k(  133) = (  -0.1666667   0.1111111   0.0000000), wk =   0.0123457
        k(  134) = (  -0.1666667   0.5555556   0.0000000), wk =   0.0000000
        k(  135) = (   0.1111111   0.0555556   0.0000000), wk =   0.0123457
        k(  136) = (   0.1111111   0.5000000   0.0000000), wk =   0.0000000
        k(  137) = (  -0.0555556  -0.1111111   0.0000000), wk =   0.0123457
        k(  138) = (  -0.0555556   0.3333333   0.0000000), wk =   0.0000000
        k(  139) = (  -0.2222222   0.0555556   0.0000000), wk =   0.0123457
        k(  140) = (  -0.2222222   0.5000000   0.0000000), wk =   0.0000000
        k(  141) = (   0.1666667  -0.2222222   0.0000000), wk =   0.0123457
        k(  142) = (   0.1666667   0.2222222   0.0000000), wk =   0.0000000
        k(  143) = (  -0.2222222   0.1666667   0.0000000), wk =   0.0123457
        k(  144) = (  -0.2222222   0.6111111   0.0000000), wk =   0.0000000
        k(  145) = (   0.1666667   0.0555556   0.0000000), wk =   0.0123457
        k(  146) = (   0.1666667   0.5000000   0.0000000), wk =   0.0000000
        k(  147) = (  -0.0555556  -0.1666667   0.0000000), wk =   0.0123457
        k(  148) = (  -0.0555556   0.2777778   0.0000000), wk =   0.0000000
        k(  149) = (  -0.2777778   0.0555556   0.0000000), wk =   0.0123457
        k(  150) = (  -0.2777778   0.5000000   0.0000000), wk =   0.0000000
        k(  151) = (   0.2222222  -0.2777778   0.0000000), wk =   0.0123457
        k(  152) = (   0.2222222   0.1666667   0.0000000), wk =   0.0000000
        k(  153) = (  -0.2777778   0.2222222   0.0000000), wk =   0.0123457
        k(  154) = (  -0.2777778   0.6666667   0.0000000), wk =   0.0000000
        k(  155) = (   0.2222222   0.0555556   0.0000000), wk =   0.0123457
        k(  156) = (   0.2222222   0.5000000   0.0000000), wk =   0.0000000
        k(  157) = (  -0.0555556  -0.2222222   0.0000000), wk =   0.0123457
        k(  158) = (  -0.0555556   0.2222222   0.0000000), wk =   0.0000000
        k(  159) = (  -0.3333333   0.0555556   0.0000000), wk =   0.0123457
        k(  160) = (  -0.3333333   0.5000000   0.0000000), wk =   0.0000000
        k(  161) = (   0.2777778  -0.3333333   0.0000000), wk =   0.0123457
        k(  162) = (   0.2777778   0.1111111   0.0000000), wk =   0.0000000
        k(  163) = (  -0.3333333   0.2777778   0.0000000), wk =   0.0123457
        k(  164) = (  -0.3333333   0.7222222   0.0000000), wk =   0.0000000
        k(  165) = (   0.2777778   0.0555556   0.0000000), wk =   0.0123457
        k(  166) = (   0.2777778   0.5000000   0.0000000), wk =   0.0000000
        k(  167) = (  -0.0555556  -0.2777778   0.0000000), wk =   0.0123457
        k(  168) = (  -0.0555556   0.1666667   0.0000000), wk =   0.0000000
        k(  169) = (  -0.3888889   0.0555556   0.0000000), wk =   0.0123457
        k(  170) = (  -0.3888889   0.5000000   0.0000000), wk =   0.0000000
        k(  171) = (   0.3333333  -0.3888889   0.0000000), wk =   0.0123457
        k(  172) = (   0.3333333   0.0555556   0.0000000), wk =   0.0000000
        k(  173) = (  -0.3888889   0.3333333   0.0000000), wk =   0.0123457
        k(  174) = (  -0.3888889   0.7777778   0.0000000), wk =   0.0000000
        k(  175) = (   0.3333333   0.0555556   0.0000000), wk =   0.0123457
        k(  176) = (   0.3333333   0.5000000   0.0000000), wk =   0.0000000
        k(  177) = (  -0.0555556  -0.3333333   0.0000000), wk =   0.0123457
        k(  178) = (  -0.0555556   0.1111111   0.0000000), wk =   0.0000000
        k(  179) = (  -0.4444444   0.0555556   0.0000000), wk =   0.0123457
        k(  180) = (  -0.4444444   0.5000000   0.0000000), wk =   0.0000000
        k(  181) = (   0.3888889  -0.4444444   0.0000000), wk =   0.0123457
        k(  182) = (   0.3888889   0.0000000   0.0000000), wk =   0.0000000
        k(  183) = (  -0.4444444   0.3888889   0.0000000), wk =   0.0123457
        k(  184) = (  -0.4444444   0.8333333   0.0000000), wk =   0.0000000
        k(  185) = (   0.3888889   0.0555556   0.0000000), wk =   0.0123457
        k(  186) = (   0.3888889   0.5000000   0.0000000), wk =   0.0000000
        k(  187) = (  -0.0555556  -0.3888889   0.0000000), wk =   0.0123457
        k(  188) = (  -0.0555556   0.0555556   0.0000000), wk =   0.0000000
        k(  189) = (  -0.5000000   0.0555556   0.0000000), wk =   0.0123457
        k(  190) = (  -0.5000000   0.5000000   0.0000000), wk =   0.0000000
        k(  191) = (   0.4444444  -0.5000000   0.0000000), wk =   0.0123457
        k(  192) = (   0.4444444  -0.0555556   0.0000000), wk =   0.0000000
        k(  193) = (  -0.5000000   0.4444444   0.0000000), wk =   0.0123457
        k(  194) = (  -0.5000000   0.8888889   0.0000000), wk =   0.0000000
        k(  195) = (   0.4444444   0.0555556   0.0000000), wk =   0.0123457
        k(  196) = (   0.4444444   0.5000000   0.0000000), wk =   0.0000000
        k(  197) = (  -0.0555556  -0.4444444   0.0000000), wk =   0.0123457
        k(  198) = (  -0.0555556  -0.0000000   0.0000000), wk =   0.0000000
        k(  199) = (  -0.2222222   0.1111111   0.0000000), wk =   0.0123457
        k(  200) = (  -0.2222222   0.5555556   0.0000000), wk =   0.0000000
        k(  201) = (   0.1111111  -0.2222222   0.0000000), wk =   0.0123457
        k(  202) = (   0.1111111   0.2222222   0.0000000), wk =   0.0000000
        k(  203) = (  -0.2777778   0.1111111   0.0000000), wk =   0.0123457
        k(  204) = (  -0.2777778   0.5555556   0.0000000), wk =   0.0000000
        k(  205) = (   0.1666667  -0.2777778   0.0000000), wk =   0.0123457
        k(  206) = (   0.1666667   0.1666667   0.0000000), wk =   0.0000000
        k(  207) = (  -0.2777778   0.1666667   0.0000000), wk =   0.0123457
        k(  208) = (  -0.2777778   0.6111111   0.0000000), wk =   0.0000000
        k(  209) = (   0.1666667   0.1111111   0.0000000), wk =   0.0123457
        k(  210) = (   0.1666667   0.5555556   0.0000000), wk =   0.0000000
        k(  211) = (  -0.1111111  -0.1666667   0.0000000), wk =   0.0123457
        k(  212) = (  -0.1111111   0.2777778   0.0000000), wk =   0.0000000
        k(  213) = (  -0.3333333   0.1111111   0.0000000), wk =   0.0123457
        k(  214) = (  -0.3333333   0.5555556   0.0000000), wk =   0.0000000
        k(  215) = (   0.2222222  -0.3333333   0.0000000), wk =   0.0123457
        k(  216) = (   0.2222222   0.1111111   0.0000000), wk =   0.0000000
        k(  217) = (  -0.3333333   0.2222222   0.0000000), wk =   0.0123457
        k(  218) = (  -0.3333333   0.6666667   0.0000000), wk =   0.0000000
        k(  219) = (   0.2222222   0.1111111   0.0000000), wk =   0.0123457
        k(  220) = (   0.2222222   0.5555556   0.0000000), wk =   0.0000000
        k(  221) = (  -0.1111111  -0.2222222   0.0000000), wk =   0.0123457
        k(  222) = (  -0.1111111   0.2222222   0.0000000), wk =   0.0000000
        k(  223) = (  -0.3888889   0.1111111   0.0000000), wk =   0.0123457
        k(  224) = (  -0.3888889   0.5555556   0.0000000), wk =   0.0000000
        k(  225) = (   0.2777778  -0.3888889   0.0000000), wk =   0.0123457
        k(  226) = (   0.2777778   0.0555556   0.0000000), wk =   0.0000000
        k(  227) = (  -0.3888889   0.2777778   0.0000000), wk =   0.0123457
        k(  228) = (  -0.3888889   0.7222222   0.0000000), wk =   0.0000000
        k(  229) = (   0.2777778   0.1111111   0.0000000), wk =   0.0123457
        k(  230) = (   0.2777778   0.5555556   0.0000000), wk =   0.0000000
        k(  231) = (  -0.1111111  -0.2777778   0.0000000), wk =   0.0123457
        k(  232) = (  -0.1111111   0.1666667   0.0000000), wk =   0.0000000
        k(  233) = (  -0.4444444   0.1111111   0.0000000), wk =   0.0123457
        k(  234) = (  -0.4444444   0.5555556   0.0000000), wk =   0.0000000
        k(  235) = (   0.3333333  -0.4444444   0.0000000), wk =   0.0123457
        k(  236) = (   0.3333333   0.0000000   0.0000000), wk =   0.0000000
        k(  237) = (  -0.4444444   0.3333333   0.0000000), wk =   0.0123457
        k(  238) = (  -0.4444444   0.7777778   0.0000000), wk =   0.0000000
        k(  239) = (   0.3333333   0.1111111   0.0000000), wk =   0.0123457
        k(  240) = (   0.3333333   0.5555556   0.0000000), wk =   0.0000000
        k(  241) = (  -0.1111111  -0.3333333   0.0000000), wk =   0.0123457
        k(  242) = (  -0.1111111   0.1111111   0.0000000), wk =   0.0000000
        k(  243) = (  -0.5000000   0.1111111   0.0000000), wk =   0.0123457
        k(  244) = (  -0.5000000   0.5555556   0.0000000), wk =   0.0000000
        k(  245) = (   0.3888889  -0.5000000   0.0000000), wk =   0.0123457
        k(  246) = (   0.3888889  -0.0555556   0.0000000), wk =   0.0000000
        k(  247) = (  -0.5000000   0.3888889   0.0000000), wk =   0.0123457
        k(  248) = (  -0.5000000   0.8333333   0.0000000), wk =   0.0000000
        k(  249) = (   0.3888889   0.1111111   0.0000000), wk =   0.0123457
        k(  250) = (   0.3888889   0.5555556   0.0000000), wk =   0.0000000
        k(  251) = (  -0.1111111  -0.3888889   0.0000000), wk =   0.0123457
        k(  252) = (  -0.1111111   0.0555556   0.0000000), wk =   0.0000000
        k(  253) = (  -0.5555556   0.1111111   0.0000000), wk =   0.0123457
        k(  254) = (  -0.5555556   0.5555556   0.0000000), wk =   0.0000000
        k(  255) = (   0.4444444  -0.5555556   0.0000000), wk =   0.0123457
        k(  256) = (   0.4444444  -0.1111111   0.0000000), wk =   0.0000000
        k(  257) = (  -0.3333333   0.1666667   0.0000000), wk =   0.0123457
        k(  258) = (  -0.3333333   0.6111111   0.0000000), wk =   0.0000000
        k(  259) = (   0.1666667  -0.3333333   0.0000000), wk =   0.0123457
        k(  260) = (   0.1666667   0.1111111   0.0000000), wk =   0.0000000
        k(  261) = (  -0.3888889   0.1666667   0.0000000), wk =   0.0123457
        k(  262) = (  -0.3888889   0.6111111   0.0000000), wk =   0.0000000
        k(  263) = (   0.2222222  -0.3888889   0.0000000), wk =   0.0123457
        k(  264) = (   0.2222222   0.0555556   0.0000000), wk =   0.0000000
        k(  265) = (  -0.3888889   0.2222222   0.0000000), wk =   0.0123457
        k(  266) = (  -0.3888889   0.6666667   0.0000000), wk =   0.0000000
        k(  267) = (   0.2222222   0.1666667   0.0000000), wk =   0.0123457
        k(  268) = (   0.2222222   0.6111111   0.0000000), wk =   0.0000000
        k(  269) = (  -0.1666667  -0.2222222   0.0000000), wk =   0.0123457
        k(  270) = (  -0.1666667   0.2222222   0.0000000), wk =   0.0000000
        k(  271) = (  -0.4444444   0.1666667   0.0000000), wk =   0.0123457
        k(  272) = (  -0.4444444   0.6111111   0.0000000), wk =   0.0000000
        k(  273) = (   0.2777778  -0.4444444   0.0000000), wk =   0.0123457
        k(  274) = (   0.2777778   0.0000000   0.0000000), wk =   0.0000000
        k(  275) = (  -0.4444444   0.2777778   0.0000000), wk =   0.0123457
        k(  276) = (  -0.4444444   0.7222222   0.0000000), wk =   0.0000000
        k(  277) = (   0.2777778   0.1666667   0.0000000), wk =   0.0123457
        k(  278) = (   0.2777778   0.6111111   0.0000000), wk =   0.0000000
        k(  279) = (  -0.1666667  -0.2777778   0.0000000), wk =   0.0123457
        k(  280) = (  -0.1666667   0.1666667   0.0000000), wk =   0.0000000
        k(  281) = (  -0.5000000   0.1666667   0.0000000), wk =   0.0123457
        k(  282) = (  -0.5000000   0.6111111   0.0000000), wk =   0.0000000
        k(  283) = (   0.3333333  -0.5000000   0.0000000), wk =   0.0123457
        k(  284) = (   0.3333333  -0.0555556   0.0000000), wk =   0.0000000
        k(  285) = (  -0.5000000   0.3333333   0.0000000), wk =   0.0123457
        k(  286) = (  -0.5000000   0.7777778   0.0000000), wk =   0.0000000
        k(  287) = (   0.3333333   0.1666667   0.0000000), wk =   0.0123457
        k(  288) = (   0.3333333   0.6111111   0.0000000), wk =   0.0000000
        k(  289) = (  -0.1666667  -0.3333333   0.0000000), wk =   0.0123457
        k(  290) = (  -0.1666667   0.1111111   0.0000000), wk =   0.0000000
        k(  291) = (  -0.5555556   0.1666667   0.0000000), wk =   0.0123457
        k(  292) = (  -0.5555556   0.6111111   0.0000000), wk =   0.0000000
        k(  293) = (   0.3888889  -0.5555556   0.0000000), wk =   0.0123457
        k(  294) = (   0.3888889  -0.1111111   0.0000000), wk =   0.0000000
        k(  295) = (  -0.5555556   0.3888889   0.0000000), wk =   0.0123457
        k(  296) = (  -0.5555556   0.8333333   0.0000000), wk =   0.0000000
        k(  297) = (   0.3888889   0.1666667   0.0000000), wk =   0.0123457
        k(  298) = (   0.3888889   0.6111111   0.0000000), wk =   0.0000000
        k(  299) = (  -0.1666667  -0.3888889   0.0000000), wk =   0.0123457
        k(  300) = (  -0.1666667   0.0555556   0.0000000), wk =   0.0000000
        k(  301) = (  -0.4444444   0.2222222   0.0000000), wk =   0.0123457
        k(  302) = (  -0.4444444   0.6666667   0.0000000), wk =   0.0000000
        k(  303) = (   0.2222222  -0.4444444   0.0000000), wk =   0.0123457
        k(  304) = (   0.2222222  -0.0000000   0.0000000), wk =   0.0000000
        k(  305) = (  -0.5000000   0.2222222   0.0000000), wk =   0.0123457
        k(  306) = (  -0.5000000   0.6666667   0.0000000), wk =   0.0000000
        k(  307) = (   0.2777778  -0.5000000   0.0000000), wk =   0.0123457
        k(  308) = (   0.2777778  -0.0555556   0.0000000), wk =   0.0000000
        k(  309) = (  -0.5000000   0.2777778   0.0000000), wk =   0.0123457
        k(  310) = (  -0.5000000   0.7222222   0.0000000), wk =   0.0000000
        k(  311) = (   0.2777778   0.2222222   0.0000000), wk =   0.0123457
        k(  312) = (   0.2777778   0.6666667   0.0000000), wk =   0.0000000
        k(  313) = (  -0.2222222  -0.2777778   0.0000000), wk =   0.0123457
        k(  314) = (  -0.2222222   0.1666667   0.0000000), wk =   0.0000000
        k(  315) = (  -0.5555556   0.2222222   0.0000000), wk =   0.0123457
        k(  316) = (  -0.5555556   0.6666667   0.0000000), wk =   0.0000000
        k(  317) = (   0.3333333  -0.5555556   0.0000000), wk =   0.0123457
        k(  318) = (   0.3333333  -0.1111111   0.0000000), wk =   0.0000000
        k(  319) = (  -0.5555556   0.3333333   0.0000000), wk =   0.0123457
        k(  320) = (  -0.5555556   0.7777778   0.0000000), wk =   0.0000000
        k(  321) = (   0.3333333   0.2222222   0.0000000), wk =   0.0123457
        k(  322) = (   0.3333333   0.6666667   0.0000000), wk =   0.0000000
        k(  323) = (  -0.2222222  -0.3333333   0.0000000), wk =   0.0123457
        k(  324) = (  -0.2222222   0.1111111   0.0000000), wk =   0.0000000
        k(  325) = (  -0.6111111   0.2222222   0.0000000), wk =   0.0123457
        k(  326) = (  -0.6111111   0.6666667   0.0000000), wk =   0.0000000
        k(  327) = (   0.3888889  -0.6111111   0.0000000), wk =   0.0123457
        k(  328) = (   0.3888889  -0.1666667   0.0000000), wk =   0.0000000
        k(  329) = (  -0.5555556   0.2777778   0.0000000), wk =   0.0123457
        k(  330) = (  -0.5555556   0.7222222   0.0000000), wk =   0.0000000
        k(  331) = (   0.2777778  -0.5555556   0.0000000), wk =   0.0123457
        k(  332) = (   0.2777778  -0.1111111   0.0000000), wk =   0.0000000
        k(  333) = (  -0.6111111   0.2777778   0.0000000), wk =   0.0123457
        k(  334) = (  -0.6111111   0.7222222   0.0000000), wk =   0.0000000
        k(  335) = (   0.3333333  -0.6111111   0.0000000), wk =   0.0123457
        k(  336) = (   0.3333333  -0.1666667   0.0000000), wk =   0.0000000
        k(  337) = (  -0.6111111   0.3333333   0.0000000), wk =   0.0123457
        k(  338) = (  -0.6111111   0.7777778   0.0000000), wk =   0.0000000
        k(  339) = (   0.3333333   0.2777778   0.0000000), wk =   0.0123457
        k(  340) = (   0.3333333   0.7222222   0.0000000), wk =   0.0000000
        k(  341) = (  -0.2777778  -0.3333333   0.0000000), wk =   0.0123457
        k(  342) = (  -0.2777778   0.1111111   0.0000000), wk =   0.0000000

     Dense  grid:  1108055 G-vectors     FFT dimensions: (  72,  72, 500)

     Dynamical RAM for                 wfc:       3.96 MB

     Dynamical RAM for     wfc (w. buffer):       3.96 MB

     Dynamical RAM for           str. fact:       4.23 MB

     Dynamical RAM for           local pot:       0.53 MB

     Dynamical RAM for          nlocal pot:       8.46 MB

     Dynamical RAM for                qrad:       2.29 MB

     Dynamical RAM for          rho,v,vnew:      13.82 MB

     Dynamical RAM for           G-vectors:       8.98 MB

     Dynamical RAM for          h,s,v(r/c):       0.16 MB

     Dynamical RAM for          <psi|beta>:       0.01 MB

     Dynamical RAM for                 psi:      15.86 MB

     Dynamical RAM for                hpsi:      15.86 MB

     Dynamical RAM for                spsi:      15.86 MB

     Dynamical RAM for      wfcinit/wfcrot:       8.46 MB

     Dynamical RAM for           addusdens:      95.10 MB

     Estimated static dynamical RAM per process >      61.06 MB

     Estimated max dynamical RAM per process >     156.16 MB

     Estimated total dynamical RAM >       1.22 GB
 ----2D----2D----2D----2D----2D----2D----2D----2D----2D----2D----2D----2D
  The code is running with the 2D cutoff
  Please refer to:
  Sohier, T., Calandra, M., & Mauri, F. (2017), 
  Density functional perturbation theory for gated two-dimensional heterostructures:
  Theoretical developments and application to flexural phonons in graphene.
  Physical Review B, 96(7), 75448. https://doi.org/10.1103/PhysRevB.96.075448
 ----2D----2D----2D----2D----2D----2D----2D----2D----2D----2D----2D----2D

     The potential is recalculated from file :
     /home/ext_chineason_graduate_utm_my/fgc/tmp/5.5/_ph0/fgc.save/charge-density


     negative rho (up, down):  5.457E-06 0.000E+00
     Starting wfcs are   16 atomic wfcs

     Band Structure Calculation
     Davidson diagonalization with overlap

     Computing kpt #:     1
     total cpu time spent up to now is       13.1 secs

     Computing kpt #:     2
     total cpu time spent up to now is       21.7 secs

     Computing kpt #:     3
     total cpu time spent up to now is       38.3 secs

     Computing kpt #:     4
     total cpu time spent up to now is       46.7 secs

     Computing kpt #:     5
     total cpu time spent up to now is       62.8 secs

     Computing kpt #:     6
     total cpu time spent up to now is       70.1 secs

     Computing kpt #:     7
     total cpu time spent up to now is       80.0 secs

     Computing kpt #:     8
     total cpu time spent up to now is       88.5 secs

     Computing kpt #:     9
     total cpu time spent up to now is      100.4 secs

     Computing kpt #:    10
     total cpu time spent up to now is      112.8 secs

     Computing kpt #:    11
     total cpu time spent up to now is      126.4 secs

     Computing kpt #:    12
     total cpu time spent up to now is      140.7 secs

     Computing kpt #:    13
     total cpu time spent up to now is      153.4 secs

     Computing kpt #:    14
     total cpu time spent up to now is      164.7 secs

     Computing kpt #:    15
     total cpu time spent up to now is      171.1 secs

     Computing kpt #:    16
     total cpu time spent up to now is      179.6 secs

     Computing kpt #:    17
     total cpu time spent up to now is      186.4 secs

     Computing kpt #:    18
     total cpu time spent up to now is      203.4 secs

     Computing kpt #:    19
     total cpu time spent up to now is      211.3 secs

     Computing kpt #:    20
     total cpu time spent up to now is      225.7 secs

     Computing kpt #:    21
     total cpu time spent up to now is      243.2 secs

     Computing kpt #:    22
     total cpu time spent up to now is      256.0 secs

     Computing kpt #:    23
     total cpu time spent up to now is      267.7 secs

     Computing kpt #:    24
     total cpu time spent up to now is      282.5 secs

     Computing kpt #:    25
     total cpu time spent up to now is      293.3 secs

     Computing kpt #:    26
     total cpu time spent up to now is      309.3 secs

     Computing kpt #:    27
     total cpu time spent up to now is      322.8 secs

     Computing kpt #:    28
     total cpu time spent up to now is      335.9 secs

     Computing kpt #:    29
     total cpu time spent up to now is      348.4 secs

     Computing kpt #:    30
     total cpu time spent up to now is      361.4 secs

     Computing kpt #:    31
     total cpu time spent up to now is      377.4 secs

     Computing kpt #:    32
     total cpu time spent up to now is      388.1 secs

     Computing kpt #:    33
     total cpu time spent up to now is      403.5 secs

     Computing kpt #:    34
     total cpu time spent up to now is      412.5 secs

     Computing kpt #:    35
     total cpu time spent up to now is      425.8 secs

     Computing kpt #:    36
     total cpu time spent up to now is      443.4 secs

     Computing kpt #:    37
     total cpu time spent up to now is      453.9 secs

     Computing kpt #:    38
     total cpu time spent up to now is      468.0 secs

     Computing kpt #:    39
     total cpu time spent up to now is      478.9 secs

     Computing kpt #:    40
     total cpu time spent up to now is      493.8 secs

     Computing kpt #:    41
     total cpu time spent up to now is      510.0 secs

     Computing kpt #:    42
     total cpu time spent up to now is      524.3 secs

     Computing kpt #:    43
     total cpu time spent up to now is      538.0 secs

     Computing kpt #:    44
     total cpu time spent up to now is      549.6 secs

     Computing kpt #:    45
     total cpu time spent up to now is      563.5 secs

     Computing kpt #:    46
     total cpu time spent up to now is      576.6 secs

     Computing kpt #:    47
     total cpu time spent up to now is      588.2 secs

     Computing kpt #:    48
     total cpu time spent up to now is      598.2 secs

     Computing kpt #:    49
     total cpu time spent up to now is      611.2 secs

     Computing kpt #:    50
     total cpu time spent up to now is      626.8 secs

     Computing kpt #:    51
     total cpu time spent up to now is      638.7 secs

     Computing kpt #:    52
     total cpu time spent up to now is      650.4 secs

     Computing kpt #:    53
     total cpu time spent up to now is      661.6 secs

     Computing kpt #:    54
     total cpu time spent up to now is      673.1 secs

     Computing kpt #:    55
     total cpu time spent up to now is      683.1 secs

     Computing kpt #:    56
     total cpu time spent up to now is      693.4 secs

     Computing kpt #:    57
     total cpu time spent up to now is      705.8 secs

     Computing kpt #:    58
     total cpu time spent up to now is      717.9 secs

     Computing kpt #:    59
     total cpu time spent up to now is      730.4 secs

     Computing kpt #:    60
     total cpu time spent up to now is      739.0 secs

     Computing kpt #:    61
     total cpu time spent up to now is      752.6 secs

     Computing kpt #:    62
     total cpu time spent up to now is      771.0 secs

     Computing kpt #:    63
     total cpu time spent up to now is      787.2 secs

     Computing kpt #:    64
     total cpu time spent up to now is      804.6 secs

     Computing kpt #:    65
     total cpu time spent up to now is      815.7 secs

     Computing kpt #:    66
     total cpu time spent up to now is      827.1 secs

     Computing kpt #:    67
     total cpu time spent up to now is      837.8 secs

     Computing kpt #:    68
     total cpu time spent up to now is      848.5 secs

     Computing kpt #:    69
     total cpu time spent up to now is      859.7 secs

     Computing kpt #:    70
     total cpu time spent up to now is      873.0 secs

     Computing kpt #:    71
     total cpu time spent up to now is      885.0 secs

     Computing kpt #:    72
     total cpu time spent up to now is      898.6 secs

     Computing kpt #:    73
     total cpu time spent up to now is      907.3 secs

     Computing kpt #:    74
     total cpu time spent up to now is      920.8 secs

     Computing kpt #:    75
     total cpu time spent up to now is      937.5 secs

     Computing kpt #:    76
     total cpu time spent up to now is      953.0 secs

     Computing kpt #:    77
     total cpu time spent up to now is      967.9 secs

     Computing kpt #:    78
     total cpu time spent up to now is      980.7 secs

     Computing kpt #:    79
     total cpu time spent up to now is      996.3 secs

     Computing kpt #:    80
     total cpu time spent up to now is     1004.9 secs

     Computing kpt #:    81
     total cpu time spent up to now is     1021.5 secs

     Computing kpt #:    82
     total cpu time spent up to now is     1038.3 secs

     Computing kpt #:    83
     total cpu time spent up to now is     1055.3 secs

     Computing kpt #:    84
     total cpu time spent up to now is     1067.1 secs

     Computing kpt #:    85
     total cpu time spent up to now is     1083.2 secs

     Computing kpt #:    86
     total cpu time spent up to now is     1096.7 secs

     Computing kpt #:    87
     total cpu time spent up to now is     1106.5 secs

     Computing kpt #:    88
     total cpu time spent up to now is     1117.7 secs

     Computing kpt #:    89
     total cpu time spent up to now is     1127.3 secs

     Computing kpt #:    90
     total cpu time spent up to now is     1138.0 secs

     Computing kpt #:    91
     total cpu time spent up to now is     1150.4 secs

     Computing kpt #:    92
     total cpu time spent up to now is     1163.4 secs

     Computing kpt #:    93
     total cpu time spent up to now is     1176.6 secs

     Computing kpt #:    94
     total cpu time spent up to now is     1187.3 secs

     Computing kpt #:    95
     total cpu time spent up to now is     1201.0 secs

     Computing kpt #:    96
     total cpu time spent up to now is     1213.2 secs

     Computing kpt #:    97
     total cpu time spent up to now is     1224.7 secs

     Computing kpt #:    98
     total cpu time spent up to now is     1236.9 secs

     Computing kpt #:    99
     total cpu time spent up to now is     1250.4 secs

     Computing kpt #:   100
     total cpu time spent up to now is     1261.6 secs

     Computing kpt #:   101
     total cpu time spent up to now is     1275.0 secs

     Computing kpt #:   102
     total cpu time spent up to now is     1287.6 secs

     Computing kpt #:   103
     total cpu time spent up to now is     1301.1 secs

     Computing kpt #:   104
     total cpu time spent up to now is     1312.4 secs

     Computing kpt #:   105
     total cpu time spent up to now is     1327.1 secs

     Computing kpt #:   106
     total cpu time spent up to now is     1340.9 secs

     Computing kpt #:   107
     total cpu time spent up to now is     1353.8 secs

     Computing kpt #:   108
     total cpu time spent up to now is     1366.3 secs

     Computing kpt #:   109
     total cpu time spent up to now is     1382.1 secs

     Computing kpt #:   110
     total cpu time spent up to now is     1399.7 secs

     Computing kpt #:   111
     total cpu time spent up to now is     1406.2 secs

     Computing kpt #:   112
     total cpu time spent up to now is     1421.4 secs

     Computing kpt #:   113
     total cpu time spent up to now is     1430.7 secs

     Computing kpt #:   114
     total cpu time spent up to now is     1444.1 secs

     Computing kpt #:   115
     total cpu time spent up to now is     1452.2 secs

     Computing kpt #:   116
     total cpu time spent up to now is     1468.7 secs

     Computing kpt #:   117
     total cpu time spent up to now is     1475.9 secs

     Computing kpt #:   118
     total cpu time spent up to now is     1483.6 secs

     Computing kpt #:   119
     total cpu time spent up to now is     1492.2 secs

     Computing kpt #:   120
     total cpu time spent up to now is     1502.8 secs

     Computing kpt #:   121
     total cpu time spent up to now is     1509.6 secs

     Computing kpt #:   122
     total cpu time spent up to now is     1517.8 secs

     Computing kpt #:   123
     total cpu time spent up to now is     1527.0 secs

     Computing kpt #:   124
     total cpu time spent up to now is     1542.1 secs

     Computing kpt #:   125
     total cpu time spent up to now is     1559.7 secs

     Computing kpt #:   126
     total cpu time spent up to now is     1572.0 secs

     Computing kpt #:   127
     total cpu time spent up to now is     1591.9 secs

     Computing kpt #:   128
     total cpu time spent up to now is     1608.7 secs

     Computing kpt #:   129
     total cpu time spent up to now is     1618.7 secs

     Computing kpt #:   130
     total cpu time spent up to now is     1629.5 secs

     Computing kpt #:   131
     total cpu time spent up to now is     1641.9 secs

     Computing kpt #:   132
     total cpu time spent up to now is     1659.0 secs

     Computing kpt #:   133
     total cpu time spent up to now is     1671.3 secs

     Computing kpt #:   134
     total cpu time spent up to now is     1686.0 secs

     Computing kpt #:   135
     total cpu time spent up to now is     1698.6 secs

     Computing kpt #:   136
     total cpu time spent up to now is     1711.7 secs

     Computing kpt #:   137
     total cpu time spent up to now is     1722.0 secs

     Computing kpt #:   138
     total cpu time spent up to now is     1736.7 secs

     Computing kpt #:   139
     total cpu time spent up to now is     1748.7 secs

     Computing kpt #:   140
     total cpu time spent up to now is     1763.4 secs

     Computing kpt #:   141
     total cpu time spent up to now is     1775.1 secs

     Computing kpt #:   142
     total cpu time spent up to now is     1787.1 secs

     Computing kpt #:   143
     total cpu time spent up to now is     1799.9 secs

     Computing kpt #:   144
     total cpu time spent up to now is     1810.9 secs

     Computing kpt #:   145
     total cpu time spent up to now is     1823.4 secs

     Computing kpt #:   146
     total cpu time spent up to now is     1839.3 secs

     Computing kpt #:   147
[...]
        k(  303) = (   0.2222222  -0.4444444   0.0000000), wk =   0.0123457
        k(  304) = (   0.2222222  -0.0000000   0.0000000), wk =   0.0000000
        k(  305) = (  -0.5000000   0.2222222   0.0000000), wk =   0.0123457
        k(  306) = (  -0.5000000   0.6666667   0.0000000), wk =   0.0000000
        k(  307) = (   0.2777778  -0.5000000   0.0000000), wk =   0.0123457
        k(  308) = (   0.2777778  -0.0555556   0.0000000), wk =   0.0000000
        k(  309) = (  -0.5000000   0.2777778   0.0000000), wk =   0.0123457
        k(  310) = (  -0.5000000   0.7222222   0.0000000), wk =   0.0000000
        k(  311) = (   0.2777778   0.2222222   0.0000000), wk =   0.0123457
        k(  312) = (   0.2777778   0.6666667   0.0000000), wk =   0.0000000
        k(  313) = (  -0.2222222  -0.2777778   0.0000000), wk =   0.0123457
        k(  314) = (  -0.2222222   0.1666667   0.0000000), wk =   0.0000000
        k(  315) = (  -0.5555556   0.2222222   0.0000000), wk =   0.0123457
        k(  316) = (  -0.5555556   0.6666667   0.0000000), wk =   0.0000000
        k(  317) = (   0.3333333  -0.5555556   0.0000000), wk =   0.0123457
        k(  318) = (   0.3333333  -0.1111111   0.0000000), wk =   0.0000000
        k(  319) = (  -0.5555556   0.3333333   0.0000000), wk =   0.0123457
        k(  320) = (  -0.5555556   0.7777778   0.0000000), wk =   0.0000000
        k(  321) = (   0.3333333   0.2222222   0.0000000), wk =   0.0123457
        k(  322) = (   0.3333333   0.6666667   0.0000000), wk =   0.0000000
        k(  323) = (  -0.2222222  -0.3333333   0.0000000), wk =   0.0123457
        k(  324) = (  -0.2222222   0.1111111   0.0000000), wk =   0.0000000
        k(  325) = (  -0.6111111   0.2222222   0.0000000), wk =   0.0123457
        k(  326) = (  -0.6111111   0.6666667   0.0000000), wk =   0.0000000
        k(  327) = (   0.3888889  -0.6111111   0.0000000), wk =   0.0123457
        k(  328) = (   0.3888889  -0.1666667   0.0000000), wk =   0.0000000
        k(  329) = (  -0.5555556   0.2777778   0.0000000), wk =   0.0123457
        k(  330) = (  -0.5555556   0.7222222   0.0000000), wk =   0.0000000
        k(  331) = (   0.2777778  -0.5555556   0.0000000), wk =   0.0123457
        k(  332) = (   0.2777778  -0.1111111   0.0000000), wk =   0.0000000
        k(  333) = (  -0.6111111   0.2777778   0.0000000), wk =   0.0123457
        k(  334) = (  -0.6111111   0.7222222   0.0000000), wk =   0.0000000
        k(  335) = (   0.3333333  -0.6111111   0.0000000), wk =   0.0123457
        k(  336) = (   0.3333333  -0.1666667   0.0000000), wk =   0.0000000
        k(  337) = (  -0.6111111   0.3333333   0.0000000), wk =   0.0123457
        k(  338) = (  -0.6111111   0.7777778   0.0000000), wk =   0.0000000
        k(  339) = (   0.3333333   0.2777778   0.0000000), wk =   0.0123457
        k(  340) = (   0.3333333   0.7222222   0.0000000), wk =   0.0000000
        k(  341) = (  -0.2777778  -0.3333333   0.0000000), wk =   0.0123457
        k(  342) = (  -0.2777778   0.1111111   0.0000000), wk =   0.0000000

     PseudoPot. # 1 for C  read from file:
     ../pseudo/c_pbe_v1.2.uspp.F.UPF
     MD5 check sum: d1aef80898a10debaa0f26306b886e00
     Pseudo is Ultrasoft + core correction, Zval =  4.0
     Generated by new atomic code, or converted to UPF format
     Using radial grid of  721 points,  4 beta functions with: 
                l(1) =   0
                l(2) =   0
                l(3) =   1
                l(4) =   1
     Q(r) pseudized with  8 coefficients,  rinner =    1.100   1.100   1.100


     PseudoPot. # 2 for F  read from file:
     ../pseudo/f_pbe_v1.4.uspp.F.UPF
     MD5 check sum: 4c38b6a325caf53ec0e86aed9459de46
     Pseudo is Ultrasoft, Zval =  7.0
     Generated by new atomic code, or converted to UPF format
     Using radial grid of  799 points,  4 beta functions with: 
                l(1) =   0
                l(2) =   0
                l(3) =   1
                l(4) =   1
     Q(r) pseudized with  8 coefficients,  rinner =    0.950   0.950   0.950


     point group C_s (m)    
     there are  2 classes
     the character table:

       E     s    
A'     1.00  1.00
A''    1.00 -1.00

     the symmetry operations in each class and the name of the first element:

     E        1
          identity                                               
     s        2
          inv. 180 deg rotation - cart. axis [1,0,0]             


     Atomic displacements:
     There are   12 irreducible representations

     Representation     1      1 modes -  Not done in this run
     Irreps are as follows:

                     mode #   1
                     (   0.00000  -0.00000   ) 
                     (   0.00000  -0.00000   ) 
                     (   0.00000  -0.00000   ) 
                     (   0.00000  -0.00000   ) 
                     (   0.00000  -0.00000   ) 
                     (   0.00000  -0.00000   ) 
                     (   0.00000  -0.00000   ) 
                     (   0.00000  -0.00000   ) 
                     (   0.00000  -0.00000   ) 
                     (   0.00000   0.00000   ) 
                     (  -0.99544  -0.00000   ) 
                     (   0.08504  -0.04324   ) 

     Representation     2      1 modes -  Not done in this run
     Irreps are as follows:

                     mode #   2
                     (   0.00000  -0.00000   ) 
                     (   0.00000  -0.00000   ) 
                     (   0.00000  -0.00000   ) 
                     (   0.00000  -0.00000   ) 
                     (   0.00000  -0.00000   ) 
                     (   0.00000  -0.00000   ) 
                     (   0.00000  -0.00000   ) 
                     (  -0.99948  -0.00000   ) 
                     (   0.01585   0.02794   ) 
                     (   0.00000  -0.00000   ) 
                     (   0.00000  -0.00000   ) 
                     (   0.00000  -0.00000   ) 

     Representation     3      1 modes -  Not done in this run
     Irreps are as follows:

                     mode #   3
                     (   0.00000   0.00000   ) 
                     (  -0.02178  -0.00000   ) 
                     (  -0.88928  -0.45685   ) 
                     (  -0.00000  -0.00000   ) 
                     (  -0.00000  -0.00000   ) 
                     (  -0.00000  -0.00000   ) 
                     (  -0.00000  -0.00000   ) 
                     (  -0.00000  -0.00000   ) 
                     (  -0.00000  -0.00000   ) 
                     (  -0.00000  -0.00000   ) 
                     (  -0.00000  -0.00000   ) 
                     (  -0.00000  -0.00000   ) 

     Representation     4      1 modes -  Not done in this run
     Irreps are as follows:

                     mode #   4
                     (  -0.00000  -0.00000   ) 
                     (  -0.00000  -0.00000   ) 
                     (  -0.00000  -0.00000   ) 
                     (  -0.00000  -0.00000   ) 
                     (  -0.00000  -0.00000   ) 
                     (  -0.00000  -0.00000   ) 
                     (  -0.00000  -0.00000   ) 
                     (  -0.00000  -0.00000   ) 
                     (  -0.00000  -0.00000   ) 
                     (   0.00000  -0.00000   ) 
                     (  -0.09540  -0.00000   ) 
                     (  -0.88733   0.45116   ) 

     Representation     5      1 modes -  To be done
     Irreps are as follows:

                     mode #   5
                     (  -0.00000   0.00000   ) 
                     (  -0.00000   0.00000   ) 
                     (  -0.00000   0.00000   ) 
                     (  -0.00000   0.00000   ) 
                     (  -0.01177  -0.00000   ) 
                     (  -0.83739  -0.54648   ) 
                     (  -0.00000   0.00000   ) 
                     (  -0.00000   0.00000   ) 
                     (  -0.00000   0.00000   ) 
                     (  -0.00000   0.00000   ) 
                     (  -0.00000   0.00000   ) 
                     (  -0.00000   0.00000   ) 

     Representation     6      1 modes -  Not done in this run
     Irreps are as follows:

                     mode #   6
                     (  -0.00000   0.00000   ) 
                     (  -0.00000   0.00000   ) 
                     (  -0.00000   0.00000   ) 
                     (  -0.00000   0.00000   ) 
                     (  -0.00000   0.00000   ) 
                     (  -0.00000   0.00000   ) 
                     (  -0.00000   0.00000   ) 
                     (  -0.03212   0.00000   ) 
                     (  -0.49320  -0.86932   ) 
                     (  -0.00000   0.00000   ) 
                     (  -0.00000   0.00000   ) 
                     (  -0.00000   0.00000   ) 

     Representation     7      1 modes -  Not done in this run
     Irreps are as follows:

                     mode #   7
                     (   0.00000   0.00000   ) 
                     (  -0.99976  -0.00000   ) 
                     (   0.01937   0.00995   ) 
                     (  -0.00000   0.00000   ) 
                     (  -0.00000   0.00000   ) 
                     (  -0.00000   0.00000   ) 
                     (  -0.00000   0.00000   ) 
                     (  -0.00000   0.00000   ) 
                     (  -0.00000   0.00000   ) 
                     (  -0.00000   0.00000   ) 
                     (  -0.00000   0.00000   ) 
                     (  -0.00000   0.00000   ) 

     Representation     8      1 modes -  Not done in this run
     Irreps are as follows:

                     mode #   8
                     (   0.00000  -0.00000   ) 
                     (   0.00000  -0.00000   ) 
                     (   0.00000  -0.00000   ) 
                     (   0.00000  -0.00000   ) 
                     (  -0.99993   0.00000   ) 
                     (   0.00986   0.00643   ) 
                     (   0.00000  -0.00000   ) 
                     (   0.00000  -0.00000   ) 
                     (   0.00000  -0.00000   ) 
                     (   0.00000  -0.00000   ) 
                     (   0.00000  -0.00000   ) 
                     (   0.00000  -0.00000   ) 

     Representation     9      1 modes -  Not done in this run
     Irreps are as follows:

                     mode #   9
                     (  -0.00000   0.00000   ) 
                     (  -0.00000   0.00000   ) 
                     (  -0.00000   0.00000   ) 
                     (  -1.00000  -0.00000   ) 
                     (  -0.00000   0.00000   ) 
                     (  -0.00000   0.00000   ) 
                     (  -0.00000   0.00000   ) 
                     (  -0.00000   0.00000   ) 
                     (  -0.00000   0.00000   ) 
                     (  -0.00000   0.00000   ) 
                     (  -0.00000   0.00000   ) 
                     (  -0.00000   0.00000   ) 

     Representation    10      1 modes -  Not done in this run
     Irreps are as follows:

                     mode #  10
                     (  -0.00000   0.00000   ) 
                     (  -0.00000   0.00000   ) 
                     (  -0.00000   0.00000   ) 
                     (  -0.00000   0.00000   ) 
                     (  -0.00000   0.00000   ) 
                     (  -0.00000   0.00000   ) 
                     (  -1.00000  -0.00000   ) 
                     (  -0.00000   0.00000   ) 
                     (  -0.00000   0.00000   ) 
                     (  -0.00000   0.00000   ) 
                     (  -0.00000   0.00000   ) 
                     (  -0.00000   0.00000   ) 

     Representation    11      1 modes -  Not done in this run
     Irreps are as follows:

                     mode #  11
                     (  -0.00000  -0.00000   ) 
                     (  -0.00000  -0.00000   ) 
                     (  -0.00000  -0.00000   ) 
                     (  -0.00000  -0.00000   ) 
                     (  -0.00000  -0.00000   ) 
                     (  -0.00000  -0.00000   ) 
                     (  -0.00000  -0.00000   ) 
                     (  -0.00000  -0.00000   ) 
                     (  -0.00000  -0.00000   ) 
                     (  -1.00000  -0.00000   ) 
                     (  -0.00000   0.00000   ) 
                     (  -0.00000   0.00000   ) 

     Representation    12      1 modes -  Not done in this run
     Irreps are as follows:

                     mode #  12
                     (  -1.00000  -0.00000   ) 
                     (  -0.00000  -0.00000   ) 
                     (  -0.00000   0.00000   ) 
                     (  -0.00000   0.00000   ) 
                     (  -0.00000   0.00000   ) 
                     (  -0.00000   0.00000   ) 
                     (  -0.00000   0.00000   ) 
                     (  -0.00000   0.00000   ) 
                     (  -0.00000   0.00000   ) 
                     (  -0.00000   0.00000   ) 
                     (  -0.00000   0.00000   ) 
                     (  -0.00000   0.00000   ) 

     Compute atoms:     2,


     PHONON       :      1h10m CPU      2h10m WALL



     Representation #   5 mode #   5

     Self-consistent Calculation

      iter #   1 total cpu time :  8622.1 secs   av.it.:   5.8
      thresh= 1.000E-02 alpha_mix =  0.700 |ddv_scf|^2 =  1.716E-08

      iter #   2 total cpu time : 10445.4 secs   av.it.:  14.2
      thresh= 1.310E-05 alpha_mix =  0.700 |ddv_scf|^2 =  7.579E-09

      iter #   3 total cpu time : 12271.4 secs   av.it.:  14.0
      thresh= 8.706E-06 alpha_mix =  0.700 |ddv_scf|^2 =  6.329E-10

      iter #   4 total cpu time : 13983.8 secs   av.it.:  13.8
      thresh= 2.516E-06 alpha_mix =  0.700 |ddv_scf|^2 =  3.728E-12

      iter #   5 total cpu time : 15724.9 secs   av.it.:  13.9
      thresh= 1.931E-07 alpha_mix =  0.700 |ddv_scf|^2 =  1.757E-12

      iter #   6 total cpu time : 17377.3 secs   av.it.:  13.3
      thresh= 1.326E-07 alpha_mix =  0.700 |ddv_scf|^2 =  5.919E-14

     End of self-consistent calculation

     Convergence has been achieved 

     Not diagonalizing because representation    0 is not done

     init_run     :      1.86s CPU      2.04s WALL (       1 calls)
     electrons    :   2549.45s CPU   4432.82s WALL (       1 calls)

     Called by init_run:
     wfcinit      :      0.00s CPU      0.01s WALL (       1 calls)
     wfcinit:atom :      0.82s CPU      1.27s WALL (     342 calls)
     wfcinit:wfcr :     80.28s CPU    120.50s WALL (     342 calls)
     potinit      :      0.22s CPU      0.25s WALL (       1 calls)
     hinit0       :      0.40s CPU      0.42s WALL (       1 calls)

     Called by electrons:
     c_bands      :   2549.45s CPU   4432.76s WALL (       1 calls)
     v_of_rho     :      0.42s CPU      0.47s WALL (       2 calls)
     v_h          :      0.03s CPU      0.04s WALL (       2 calls)
     v_xc         :      0.39s CPU      0.44s WALL (       2 calls)
     newd         :      0.59s CPU      0.96s WALL (       2 calls)

     Called by c_bands:
     init_us_2    :      9.08s CPU     16.85s WALL (    2223 calls)
     init_us_2:cp :      9.07s CPU     16.85s WALL (    2223 calls)
     cegterg      :   2441.68s CPU   4258.57s WALL (     666 calls)

     Called by sum_band:

     Called by *egterg:
     cdiaghg      :    197.03s CPU    425.90s WALL (    9714 calls)
     cegterg:over :    641.65s CPU   1202.00s WALL (    9372 calls)
     cegterg:upda :     60.15s CPU     98.52s WALL (    9372 calls)
     cegterg:last :     36.00s CPU     44.17s WALL (    1686 calls)
     h_psi        :   3526.47s CPU   5679.22s WALL (   28537 calls)
     s_psi        :    193.04s CPU    354.62s WALL (   47720 calls)
     g_psi        :      2.53s CPU      3.45s WALL (    9372 calls)

     Called by h_psi:
     h_psi:calbec :    615.15s CPU   1599.04s WALL (   28537 calls)
     vloc_psi     :   2799.23s CPU   3887.87s WALL (   28537 calls)
     add_vuspsi   :    103.59s CPU    174.77s WALL (   28537 calls)

     General routines
     calbec       :   1346.64s CPU   3012.29s WALL (   52850 calls)
     fft          :      2.09s CPU      3.14s WALL (     145 calls)
     ffts         :      5.44s CPU     10.75s WALL (     195 calls)
     fftw         :   4060.01s CPU   6211.89s WALL (  516833 calls)
     davcio       :      5.14s CPU     33.59s WALL (    6774 calls)

     Parallel routines

     PHONON       :      2h39m CPU      4h50m WALL

     INITIALIZATION: 
     phq_setup    :      0.26s CPU      0.36s WALL (       1 calls)
     phq_init     :   1687.32s CPU   3367.72s WALL (       1 calls)

     phq_init     :   1687.32s CPU   3367.72s WALL (       1 calls)
     set_drhoc    :      0.47s CPU      0.47s WALL (       1 calls)
     init_vloc    :      0.40s CPU      0.40s WALL (       2 calls)
     init_us_1    :      0.09s CPU      0.11s WALL (       2 calls)
     init_us_2    :      9.08s CPU     16.85s WALL (    2223 calls)
     newd         :      0.59s CPU      0.96s WALL (       2 calls)
     dvanqq       :      4.08s CPU      4.11s WALL (       1 calls)
     drho         :   1636.86s CPU   3260.20s WALL (       1 calls)

     DYNAMICAL MATRIX:
     phqscf       :   5357.01s CPU   9622.24s WALL (       1 calls)
     dynmatrix    :      0.05s CPU      0.72s WALL (       1 calls)

     phqscf       :   5357.01s CPU   9622.24s WALL (       1 calls)
     solve_linter :   5316.82s CPU   9543.96s WALL (       1 calls)
     drhodv       :     40.19s CPU     78.17s WALL (       1 calls)



     phqscf       :   5357.01s CPU   9622.24s WALL (       1 calls)
     solve_linter :   5316.82s CPU   9543.96s WALL (       1 calls)

     solve_linter :   5316.82s CPU   9543.96s WALL (       1 calls)
     dvqpsi_us    :     25.90s CPU     41.84s WALL (     171 calls)
     sth_kernel   :   5284.69s CPU   9486.92s WALL (       6 calls)
     apply_dpot_b :     76.08s CPU    101.30s WALL (     855 calls)
     ortho        :     53.31s CPU     95.92s WALL (    1026 calls)
     cgsolve      :   4985.37s CPU   9015.64s WALL (    1026 calls)
     incdrhoscf   :    134.95s CPU    192.18s WALL (    1026 calls)
     addusddens   :      6.88s CPU     15.08s WALL (      18 calls)
     dv_of_drho   :      0.60s CPU      0.76s WALL (       6 calls)
     mix_pot      :      0.06s CPU      1.12s WALL (       6 calls)
     psymdvscf    :      1.11s CPU      1.55s WALL (       6 calls)
     newdq        :      1.05s CPU      1.08s WALL (       6 calls)
     adddvscf     :     15.42s CPU     36.48s WALL (     855 calls)
     drhodvus     :      0.02s CPU      0.05s WALL (       1 calls)

     dvqpsi_us    :     25.90s CPU     41.84s WALL (     171 calls)
     dvqpsi_us_on :      3.25s CPU     10.05s WALL (     171 calls)

     cgsolve      :   4985.37s CPU   9015.64s WALL (    1026 calls)
     ch_psi       :   3335.07s CPU   5726.19s WALL (   18157 calls)

     ch_psi       :   3335.07s CPU   5726.19s WALL (   18157 calls)
     h_psi        :   3526.47s CPU   5679.22s WALL (   28537 calls)
     last         :    886.42s CPU   1719.52s WALL (   18157 calls)

     h_psi        :   3526.47s CPU   5679.22s WALL (   28537 calls)
     add_vuspsi   :    103.59s CPU    174.77s WALL (   28537 calls)

     incdrhoscf   :    134.95s CPU    192.18s WALL (    1026 calls)
     addusdbec    :    124.92s CPU    275.60s WALL (    3078 calls)

     drhodvus     :      0.02s CPU      0.05s WALL (       1 calls)

      General routines
     calbec       :   1346.64s CPU   3012.29s WALL (   52850 calls)
     fft          :      2.09s CPU      3.14s WALL (     145 calls)
     ffts         :      5.44s CPU     10.75s WALL (     195 calls)
     fftw         :   4060.01s CPU   6211.89s WALL (  516833 calls)
     davcio       :      5.14s CPU     33.59s WALL (    6774 calls)
     write_rec    :      0.03s CPU      0.75s WALL (       7 calls)


     PHONON       :      2h39m CPU      4h50m WALL


   This run was terminated on:   2:30:25   1Mar2024            

=------------------------------------------------------------------------------=
   JOB DONE.
=------------------------------------------------------------------------------=
