
     Program PHONON v.7.1 starts on  2Mar2024 at 17:20:33 

     This program is part of the open-source Quantum ESPRESSO suite
     for quantum simulation of materials; please cite
         "P. Giannozzi et al., J. Phys.:Condens. Matter 21 395502 (2009);
         "P. Giannozzi et al., J. Phys.:Condens. Matter 29 465901 (2017);
         "P. Giannozzi et al., J. Chem. Phys. 152 154105 (2020);
          URL http://www.quantum-espresso.org", 
     in publications or presentations arising from this work. More details at
     http://www.quantum-espresso.org/quote

     Parallel version (MPI), running on     8 processors

     MPI processes distributed on     1 nodes
     R & G space division:  proc/nbgrp/npool/nimage =       8
     351365 MiB available memory on the printing compute node when the environment starts

     Reading input from input.11.1
      Title line not specified: using 'default'.

     Reading xml data from directory:

     /home/ext_chineason_graduate_utm_my/fgc/tmp/11.1/fgc.save/

     IMPORTANT: XC functional enforced from input :
     Exchange-correlation= PBE
                           (   1   4   3   4   0   0   0)
     Any further DFT definition will be discarded
     Please, verify this is what you really want


     Parallelization info
     --------------------
     sticks:   dense  smooth     PW     G-vecs:    dense   smooth      PW
     Min         416     416    114               138498   138498   19368
     Max         417     417    115               138521   138521   19383
     Sum        3331    3331    913              1108055  1108055  154987

     Using Slab Decomposition

 ----2D----2D----2D----2D----2D----2D----2D----2D----2D----2D----2D----2D
  The code is running with the 2D cutoff
  Please refer to:
  Sohier, T., Calandra, M., & Mauri, F. (2017), 
  Density functional perturbation theory for gated two-dimensional heterostructures:
  Theoretical developments and application to flexural phonons in graphene.
  Physical Review B, 96(7), 75448. https://doi.org/10.1103/PhysRevB.96.075448
 ----2D----2D----2D----2D----2D----2D----2D----2D----2D----2D----2D----2D

     negative rho (up, down):  5.457E-06 0.000E+00
     Reading collected, re-writing distributed wavefunctions
        1 /  12 q-points for this run, from 11 to 11:
       N       xq(1)         xq(2)         xq(3) 
       1   0.000000000   0.000000000   0.000000000
       2   0.000000000   0.128300060   0.000000000
       3   0.000000000   0.256600120   0.000000000
       4   0.000000000   0.384900179   0.000000000
       5   0.000000000   0.513200239   0.000000000
       6   0.111111111   0.192450090   0.000000000
       7   0.111111111   0.320750150   0.000000000
       8   0.111111111   0.449050209   0.000000000
       9   0.111111111   0.577350269   0.000000000
      10   0.222222222   0.384900179   0.000000000
      11   0.222222222   0.513200239   0.000000000
      12   0.333333333   0.577350269   0.000000000


     Calculation of q =    0.2222222   0.5132002   0.0000000
     Subspace diagonalization in iterative solution of the eigenvalue problem:
     a serial algorithm will be used


     Parallelization info
     --------------------
     sticks:   dense  smooth     PW     G-vecs:    dense   smooth      PW
     Min         416     416    119               138498   138498   21205
     Max         417     417    120               138521   138521   21240
     Sum        3331    3331    955              1108055  1108055  169761

     Using Slab Decomposition


     Title: 
     default                                                                    


     bravais-lattice index     =            4
     lattice parameter (alat)  =       4.9233  a.u.
     unit-cell volume          =     733.8532 (a.u.)^3
     number of atoms/cell      =            4
     number of atomic types    =            2
     number of electrons       =        22.00
     number of Kohn-Sham states=           15
     kinetic-energy cutoff     =     500.0000  Ry
     charge density cutoff     =    2000.0000  Ry
     Exchange-correlation= PBE
                           (   1   4   3   4   0   0   0)

     celldm(1)=   4.923251  celldm(2)=   0.000000  celldm(3)=   7.101051
     celldm(4)=   0.000000  celldm(5)=   0.000000  celldm(6)=   0.000000

     crystal axes: (cart. coord. in units of alat)
               a(1) = (   1.000000   0.000000   0.000000 )  
               a(2) = (  -0.500000   0.866025   0.000000 )  
               a(3) = (   0.000000   0.000000   7.101051 )  

     reciprocal axes: (cart. coord. in units 2 pi/alat)
               b(1) = (  1.000000  0.577350 -0.000000 )  
               b(2) = (  0.000000  1.154701  0.000000 )  
               b(3) = (  0.000000 -0.000000  0.140824 )  


     PseudoPot. # 1 for C  read from file:
     ../pseudo/c_pbe_v1.2.uspp.F.UPF
     MD5 check sum: d1aef80898a10debaa0f26306b886e00
     Pseudo is Ultrasoft + core correction, Zval =  4.0
     Generated by new atomic code, or converted to UPF format
     Using radial grid of  721 points,  4 beta functions with: 
                l(1) =   0
                l(2) =   0
                l(3) =   1
                l(4) =   1
     Q(r) pseudized with  8 coefficients,  rinner =    1.100   1.100   1.100


     PseudoPot. # 2 for F  read from file:
     ../pseudo/f_pbe_v1.4.uspp.F.UPF
     MD5 check sum: 4c38b6a325caf53ec0e86aed9459de46
     Pseudo is Ultrasoft, Zval =  7.0
     Generated by new atomic code, or converted to UPF format
     Using radial grid of  799 points,  4 beta functions with: 
                l(1) =   0
                l(2) =   0
                l(3) =   1
                l(4) =   1
     Q(r) pseudized with  8 coefficients,  rinner =    0.950   0.950   0.950


     atomic species   valence    mass     pseudopotential
        C              4.00    12.01070     C ( 1.00)
        F              7.00    18.99840     F ( 1.00)

     12 Sym. Ops., with inversion, found


                                    s                        frac. trans.

      isym =  1     identity                                     

 cryst.   s( 1) = (     1          0          0      )
                  (     0          1          0      )
                  (     0          0          1      )

 cart.    s( 1) = (  1.0000000  0.0000000  0.0000000 )
                  (  0.0000000  1.0000000  0.0000000 )
                  (  0.0000000  0.0000000  1.0000000 )


      isym =  2     180 deg rotation - cart. axis [1,0,0]        

 cryst.   s( 2) = (     1          0          0      )
                  (    -1         -1          0      )
                  (     0          0         -1      )

 cart.    s( 2) = (  1.0000000  0.0000000  0.0000000 )
                  (  0.0000000 -1.0000000  0.0000000 )
                  (  0.0000000  0.0000000 -1.0000000 )


      isym =  3     120 deg rotation - cryst. axis [0,0,1]       

 cryst.   s( 3) = (     0          1          0      )    f =( -0.5000000 )
                  (    -1         -1          0      )       ( -0.5000000 )
                  (     0          0          1      )       (  0.0000000 )

 cart.    s( 3) = ( -0.5000000 -0.8660254  0.0000000 )    f =( -0.2500000 )
                  (  0.8660254 -0.5000000  0.0000000 )       ( -0.4330127 )
                  (  0.0000000  0.0000000  1.0000000 )       (  0.0000000 )


      isym =  4     120 deg rotation - cryst. axis [0,0,-1]      

 cryst.   s( 4) = (    -1         -1          0      )    f =(  0.0000000 )
                  (     1          0          0      )       ( -0.5000000 )
                  (     0          0          1      )       (  0.0000000 )

 cart.    s( 4) = ( -0.5000000  0.8660254  0.0000000 )    f =(  0.2500000 )
                  ( -0.8660254 -0.5000000  0.0000000 )       ( -0.4330127 )
                  (  0.0000000  0.0000000  1.0000000 )       (  0.0000000 )


      isym =  5     180 deg rotation - cryst. axis [0,1,0]       

 cryst.   s( 5) = (    -1         -1          0      )    f =(  0.0000000 )
                  (     0          1          0      )       ( -0.5000000 )
                  (     0          0         -1      )       (  0.0000000 )

 cart.    s( 5) = ( -0.5000000 -0.8660254  0.0000000 )    f =(  0.2500000 )
                  ( -0.8660254  0.5000000  0.0000000 )       ( -0.4330127 )
                  (  0.0000000  0.0000000 -1.0000000 )       (  0.0000000 )


      isym =  6     180 deg rotation - cryst. axis [1,1,0]       

 cryst.   s( 6) = (     0          1          0      )    f =(  0.5000000 )
                  (     1          0          0      )       (  0.5000000 )
                  (     0          0         -1      )       (  0.0000000 )

 cart.    s( 6) = ( -0.5000000  0.8660254  0.0000000 )    f =(  0.2500000 )
                  (  0.8660254  0.5000000  0.0000000 )       (  0.4330127 )
                  (  0.0000000  0.0000000 -1.0000000 )       (  0.0000000 )


      isym =  7     inversion                                    

 cryst.   s( 7) = (    -1          0          0      )
                  (     0         -1          0      )
                  (     0          0         -1      )

 cart.    s( 7) = ( -1.0000000  0.0000000  0.0000000 )
                  (  0.0000000 -1.0000000  0.0000000 )
                  (  0.0000000  0.0000000 -1.0000000 )


      isym =  8     inv. 180 deg rotation - cart. axis [1,0,0]   

 cryst.   s( 8) = (    -1          0          0      )
                  (     1          1          0      )
                  (     0          0          1      )

 cart.    s( 8) = ( -1.0000000 -0.0000000  0.0000000 )
                  (  0.0000000  1.0000000  0.0000000 )
                  (  0.0000000  0.0000000  1.0000000 )


      isym =  9     inv. 120 deg rotation - cryst. axis [0,0,1]  

 cryst.   s( 9) = (     0         -1          0      )    f =(  0.5000000 )
                  (     1          1          0      )       ( -0.5000000 )
                  (     0          0         -1      )       (  0.0000000 )

 cart.    s( 9) = (  0.5000000  0.8660254  0.0000000 )    f =(  0.7500000 )
                  ( -0.8660254  0.5000000  0.0000000 )       ( -0.4330127 )
                  (  0.0000000  0.0000000 -1.0000000 )       (  0.0000000 )


      isym = 10     inv. 120 deg rotation - cryst. axis [0,0,-1] 

 cryst.   s(10) = (     1          1          0      )    f =(  0.0000000 )
                  (    -1          0          0      )       (  0.5000000 )
                  (     0          0         -1      )       (  0.0000000 )

 cart.    s(10) = (  0.5000000 -0.8660254  0.0000000 )    f =( -0.2500000 )
                  (  0.8660254  0.5000000  0.0000000 )       (  0.4330127 )
                  (  0.0000000  0.0000000 -1.0000000 )       (  0.0000000 )


      isym = 11     inv. 180 deg rotation - cryst. axis [0,1,0]  

 cryst.   s(11) = (     1          1          0      )    f =(  0.0000000 )
                  (     0         -1          0      )       ( -0.5000000 )
                  (     0          0          1      )       (  0.0000000 )

 cart.    s(11) = (  0.5000000  0.8660254  0.0000000 )    f =(  0.2500000 )
                  (  0.8660254 -0.5000000  0.0000000 )       ( -0.4330127 )
                  (  0.0000000  0.0000000  1.0000000 )       (  0.0000000 )


      isym = 12     inv. 180 deg rotation - cryst. axis [1,1,0]  

 cryst.   s(12) = (     0         -1          0      )    f =( -0.5000000 )
                  (    -1          0          0      )       ( -0.5000000 )
                  (     0          0          1      )       (  0.0000000 )

 cart.    s(12) = (  0.5000000 -0.8660254  0.0000000 )    f =( -0.2500000 )
                  ( -0.8660254 -0.5000000  0.0000000 )       ( -0.4330127 )
                  (  0.0000000  0.0000000  1.0000000 )       (  0.0000000 )


     point group D_3d (-3m) 
     there are  6 classes
     the character table:

       E     2C3   3C2'  i     2S6   3s_d 
A_1g   1.00  1.00  1.00  1.00  1.00  1.00
A_2g   1.00  1.00 -1.00  1.00  1.00 -1.00
E_g    2.00 -1.00  0.00  2.00 -1.00  0.00
A_1u   1.00  1.00  1.00 -1.00 -1.00 -1.00
A_2u   1.00  1.00 -1.00 -1.00 -1.00  1.00
E_u    2.00 -1.00  0.00 -2.00  1.00  0.00

     the symmetry operations in each class and the name of the first element:

     E        1
          identity                                               
     2C3      3    4
          120 deg rotation - cryst. axis [0,0,1]                 
     3C2'     2    5    6
          180 deg rotation - cart. axis [1,0,0]                  
     i        7
          inversion                                              
     2S6      9   10
          inv. 120 deg rotation - cryst. axis [0,0,1]            
     3s_d     8   11   12
          inv. 180 deg rotation - cart. axis [1,0,0]             

   Cartesian axes

     site n.     atom                  positions (alat units)
         1           C   tau(   1) = (   0.5000000   0.5773503  -0.0938425  )
         2           C   tau(   2) = (  -0.0000000   0.2886751   0.0938425  )
         3           F   tau(   3) = (   0.5000000   0.5773503  -0.6234719  )
         4           F   tau(   4) = (  -0.0000000   0.2886751   0.6234719  )

   Crystallographic axes

     site n.     atom                  positions (cryst. coord.)
         1           C   tau(   1) = (  0.8333333  0.6666667 -0.0132153  )
         2           C   tau(   2) = (  0.1666667  0.3333333  0.0132153  )
         3           F   tau(   3) = (  0.8333333  0.6666667 -0.0877999  )
         4           F   tau(   4) = (  0.1666667  0.3333333  0.0877999  )

     number of k points=   648  Marzari-Vanderbilt smearing, width (Ry)=  0.0010
                       cart. coord. in units 2pi/alat
        k(    1) = (   0.0000000   0.0000000   0.0000000), wk =   0.0061728
        k(    2) = (   0.2222222   0.5132002   0.0000000), wk =   0.0000000
        k(    3) = (   0.0000000   0.0641500   0.0000000), wk =   0.0061728
        k(    4) = (   0.2222222   0.5773503   0.0000000), wk =   0.0000000
        k(    5) = (   0.0000000   0.1283001   0.0000000), wk =   0.0061728
        k(    6) = (   0.2222222   0.6415003   0.0000000), wk =   0.0000000
        k(    7) = (   0.0000000   0.1924501   0.0000000), wk =   0.0061728
        k(    8) = (   0.2222222   0.7056503   0.0000000), wk =   0.0000000
        k(    9) = (   0.0000000   0.2566001   0.0000000), wk =   0.0061728
        k(   10) = (   0.2222222   0.7698004   0.0000000), wk =   0.0000000
        k(   11) = (   0.0000000   0.3207501   0.0000000), wk =   0.0061728
        k(   12) = (   0.2222222   0.8339504   0.0000000), wk =   0.0000000
        k(   13) = (   0.0000000   0.3849002   0.0000000), wk =   0.0061728
        k(   14) = (   0.2222222   0.8981004   0.0000000), wk =   0.0000000
        k(   15) = (   0.0000000   0.4490502   0.0000000), wk =   0.0061728
        k(   16) = (   0.2222222   0.9622504   0.0000000), wk =   0.0000000
        k(   17) = (   0.0000000   0.5132002   0.0000000), wk =   0.0061728
        k(   18) = (   0.2222222   1.0264005   0.0000000), wk =   0.0000000
        k(   19) = (   0.0000000  -0.5773503   0.0000000), wk =   0.0061728
        k(   20) = (   0.2222222  -0.0641500   0.0000000), wk =   0.0000000
        k(   21) = (   0.0555556   0.0962250   0.0000000), wk =   0.0061728
        k(   22) = (   0.2777778   0.6094253   0.0000000), wk =   0.0000000
        k(   23) = (   0.0555556   0.1603751   0.0000000), wk =   0.0061728
        k(   24) = (   0.2777778   0.6735753   0.0000000), wk =   0.0000000
        k(   25) = (   0.0555556   0.2245251   0.0000000), wk =   0.0061728
        k(   26) = (   0.2777778   0.7377253   0.0000000), wk =   0.0000000
        k(   27) = (   0.0555556   0.2886751   0.0000000), wk =   0.0061728
        k(   28) = (   0.2777778   0.8018754   0.0000000), wk =   0.0000000
        k(   29) = (   0.0555556   0.3528252   0.0000000), wk =   0.0061728
        k(   30) = (   0.2777778   0.8660254   0.0000000), wk =   0.0000000
        k(   31) = (   0.0555556   0.4169752   0.0000000), wk =   0.0061728
        k(   32) = (   0.2777778   0.9301754   0.0000000), wk =   0.0000000
        k(   33) = (   0.0555556   0.4811252   0.0000000), wk =   0.0061728
        k(   34) = (   0.2777778   0.9943255   0.0000000), wk =   0.0000000
        k(   35) = (   0.0555556   0.5452753   0.0000000), wk =   0.0061728
        k(   36) = (   0.2777778   1.0584755   0.0000000), wk =   0.0000000
        k(   37) = (   0.1111111   0.1924501   0.0000000), wk =   0.0061728
        k(   38) = (   0.3333333   0.7056503   0.0000000), wk =   0.0000000
        k(   39) = (   0.1111111   0.2566001   0.0000000), wk =   0.0061728
        k(   40) = (   0.3333333   0.7698004   0.0000000), wk =   0.0000000
        k(   41) = (   0.1111111   0.3207501   0.0000000), wk =   0.0061728
        k(   42) = (   0.3333333   0.8339504   0.0000000), wk =   0.0000000
        k(   43) = (   0.1111111   0.3849002   0.0000000), wk =   0.0061728
        k(   44) = (   0.3333333   0.8981004   0.0000000), wk =   0.0000000
        k(   45) = (   0.1111111   0.4490502   0.0000000), wk =   0.0061728
        k(   46) = (   0.3333333   0.9622504   0.0000000), wk =   0.0000000
        k(   47) = (   0.1111111   0.5132002   0.0000000), wk =   0.0061728
        k(   48) = (   0.3333333   1.0264005   0.0000000), wk =   0.0000000
        k(   49) = (   0.1111111   0.5773503   0.0000000), wk =   0.0061728
        k(   50) = (   0.3333333   1.0905505   0.0000000), wk =   0.0000000
        k(   51) = (   0.1666667   0.2886751   0.0000000), wk =   0.0061728
        k(   52) = (   0.3888889   0.8018754   0.0000000), wk =   0.0000000
        k(   53) = (   0.1666667   0.3528252   0.0000000), wk =   0.0061728
        k(   54) = (   0.3888889   0.8660254   0.0000000), wk =   0.0000000
        k(   55) = (   0.1666667   0.4169752   0.0000000), wk =   0.0061728
        k(   56) = (   0.3888889   0.9301754   0.0000000), wk =   0.0000000
        k(   57) = (   0.1666667   0.4811252   0.0000000), wk =   0.0061728
        k(   58) = (   0.3888889   0.9943255   0.0000000), wk =   0.0000000
        k(   59) = (   0.1666667   0.5452753   0.0000000), wk =   0.0061728
        k(   60) = (   0.3888889   1.0584755   0.0000000), wk =   0.0000000
        k(   61) = (   0.2222222   0.3849002   0.0000000), wk =   0.0061728
        k(   62) = (   0.4444444   0.8981004   0.0000000), wk =   0.0000000
        k(   63) = (   0.2222222   0.4490502   0.0000000), wk =   0.0061728
        k(   64) = (   0.4444444   0.9622504   0.0000000), wk =   0.0000000
        k(   65) = (   0.2222222   0.5132002   0.0000000), wk =   0.0061728
        k(   66) = (   0.4444444   1.0264005   0.0000000), wk =   0.0000000
        k(   67) = (   0.2222222   0.5773503   0.0000000), wk =   0.0061728
        k(   68) = (   0.4444444   1.0905505   0.0000000), wk =   0.0000000
        k(   69) = (   0.2777778   0.4811252   0.0000000), wk =   0.0061728
        k(   70) = (   0.5000000   0.9943255   0.0000000), wk =   0.0000000
        k(   71) = (   0.2777778   0.5452753   0.0000000), wk =   0.0061728
        k(   72) = (   0.5000000   1.0584755   0.0000000), wk =   0.0000000
        k(   73) = (   0.3333333   0.5773503   0.0000000), wk =   0.0061728
        k(   74) = (   0.5555556   1.0905505   0.0000000), wk =   0.0000000
        k(   75) = (   0.0000000  -0.0641500   0.0000000), wk =   0.0061728
        k(   76) = (   0.2222222   0.4490502   0.0000000), wk =   0.0000000
        k(   77) = (  -0.0555556  -0.0320750   0.0000000), wk =   0.0061728
        k(   78) = (   0.1666667   0.4811252   0.0000000), wk =   0.0000000
        k(   79) = (   0.0555556  -0.0320750   0.0000000), wk =   0.0061728
        k(   80) = (   0.2777778   0.4811252   0.0000000), wk =   0.0000000
        k(   81) = (  -0.0555556   0.0320750   0.0000000), wk =   0.0061728
        k(   82) = (   0.1666667   0.5452753   0.0000000), wk =   0.0000000
        k(   83) = (   0.0555556   0.0320750   0.0000000), wk =   0.0061728
        k(   84) = (   0.2777778   0.5452753   0.0000000), wk =   0.0000000
        k(   85) = (   0.0000000  -0.1283001   0.0000000), wk =   0.0061728
        k(   86) = (   0.2222222   0.3849002   0.0000000), wk =   0.0000000
        k(   87) = (  -0.1111111  -0.0641500   0.0000000), wk =   0.0061728
        k(   88) = (   0.1111111   0.4490502   0.0000000), wk =   0.0000000
        k(   89) = (   0.1111111  -0.0641500   0.0000000), wk =   0.0061728
        k(   90) = (   0.3333333   0.4490502   0.0000000), wk =   0.0000000
        k(   91) = (  -0.1111111   0.0641500   0.0000000), wk =   0.0061728
        k(   92) = (   0.1111111   0.5773503   0.0000000), wk =   0.0000000
        k(   93) = (   0.1111111   0.0641500   0.0000000), wk =   0.0061728
        k(   94) = (   0.3333333   0.5773503   0.0000000), wk =   0.0000000
        k(   95) = (   0.0000000  -0.1924501   0.0000000), wk =   0.0061728
        k(   96) = (   0.2222222   0.3207501   0.0000000), wk =   0.0000000
        k(   97) = (  -0.1666667  -0.0962250   0.0000000), wk =   0.0061728
        k(   98) = (   0.0555556   0.4169752   0.0000000), wk =   0.0000000
        k(   99) = (   0.1666667  -0.0962250   0.0000000), wk =   0.0061728
        k(  100) = (   0.3888889   0.4169752   0.0000000), wk =   0.0000000
        k(  101) = (  -0.1666667   0.0962250   0.0000000), wk =   0.0061728
        k(  102) = (   0.0555556   0.6094253   0.0000000), wk =   0.0000000
        k(  103) = (   0.1666667   0.0962250   0.0000000), wk =   0.0061728
        k(  104) = (   0.3888889   0.6094253   0.0000000), wk =   0.0000000
        k(  105) = (   0.0000000  -0.2566001   0.0000000), wk =   0.0061728
        k(  106) = (   0.2222222   0.2566001   0.0000000), wk =   0.0000000
        k(  107) = (  -0.2222222  -0.1283001   0.0000000), wk =   0.0061728
        k(  108) = (   0.0000000   0.3849002   0.0000000), wk =   0.0000000
        k(  109) = (   0.2222222  -0.1283001   0.0000000), wk =   0.0061728
        k(  110) = (   0.4444444   0.3849002   0.0000000), wk =   0.0000000
        k(  111) = (  -0.2222222   0.1283001   0.0000000), wk =   0.0061728
        k(  112) = (   0.0000000   0.6415003   0.0000000), wk =   0.0000000
        k(  113) = (   0.2222222   0.1283001   0.0000000), wk =   0.0061728
        k(  114) = (   0.4444444   0.6415003   0.0000000), wk =   0.0000000
        k(  115) = (   0.0000000  -0.3207501   0.0000000), wk =   0.0061728
        k(  116) = (   0.2222222   0.1924501   0.0000000), wk =   0.0000000
        k(  117) = (  -0.2777778  -0.1603751   0.0000000), wk =   0.0061728
        k(  118) = (  -0.0555556   0.3528252   0.0000000), wk =   0.0000000
        k(  119) = (   0.2777778  -0.1603751   0.0000000), wk =   0.0061728
        k(  120) = (   0.5000000   0.3528252   0.0000000), wk =   0.0000000
        k(  121) = (  -0.2777778   0.1603751   0.0000000), wk =   0.0061728
        k(  122) = (  -0.0555556   0.6735753   0.0000000), wk =   0.0000000
        k(  123) = (   0.2777778   0.1603751   0.0000000), wk =   0.0061728
        k(  124) = (   0.5000000   0.6735753   0.0000000), wk =   0.0000000
        k(  125) = (   0.0000000  -0.3849002   0.0000000), wk =   0.0061728
        k(  126) = (   0.2222222   0.1283001   0.0000000), wk =   0.0000000
        k(  127) = (  -0.3333333  -0.1924501   0.0000000), wk =   0.0061728
        k(  128) = (  -0.1111111   0.3207501   0.0000000), wk =   0.0000000
        k(  129) = (   0.3333333  -0.1924501   0.0000000), wk =   0.0061728
        k(  130) = (   0.5555556   0.3207501   0.0000000), wk =   0.0000000
        k(  131) = (  -0.3333333   0.1924501   0.0000000), wk =   0.0061728
        k(  132) = (  -0.1111111   0.7056503   0.0000000), wk =   0.0000000
        k(  133) = (   0.3333333   0.1924501   0.0000000), wk =   0.0061728
        k(  134) = (   0.5555556   0.7056503   0.0000000), wk =   0.0000000
        k(  135) = (   0.0000000  -0.4490502   0.0000000), wk =   0.0061728
        k(  136) = (   0.2222222   0.0641500   0.0000000), wk =   0.0000000
        k(  137) = (  -0.3888889  -0.2245251   0.0000000), wk =   0.0061728
        k(  138) = (  -0.1666667   0.2886751   0.0000000), wk =   0.0000000
        k(  139) = (   0.3888889  -0.2245251   0.0000000), wk =   0.0061728
        k(  140) = (   0.6111111   0.2886751   0.0000000), wk =   0.0000000
        k(  141) = (  -0.3888889   0.2245251   0.0000000), wk =   0.0061728
        k(  142) = (  -0.1666667   0.7377253   0.0000000), wk =   0.0000000
        k(  143) = (   0.3888889   0.2245251   0.0000000), wk =   0.0061728
        k(  144) = (   0.6111111   0.7377253   0.0000000), wk =   0.0000000
        k(  145) = (   0.0000000  -0.5132002   0.0000000), wk =   0.0061728
        k(  146) = (   0.2222222   0.0000000   0.0000000), wk =   0.0000000
        k(  147) = (  -0.4444444  -0.2566001   0.0000000), wk =   0.0061728
        k(  148) = (  -0.2222222   0.2566001   0.0000000), wk =   0.0000000
        k(  149) = (   0.4444444  -0.2566001   0.0000000), wk =   0.0061728
        k(  150) = (   0.6666667   0.2566001   0.0000000), wk =   0.0000000
        k(  151) = (  -0.4444444   0.2566001   0.0000000), wk =   0.0061728
        k(  152) = (  -0.2222222   0.7698004   0.0000000), wk =   0.0000000
        k(  153) = (   0.4444444   0.2566001   0.0000000), wk =   0.0061728
        k(  154) = (   0.6666667   0.7698004   0.0000000), wk =   0.0000000
        k(  155) = (   0.5000000   0.2886751   0.0000000), wk =   0.0061728
        k(  156) = (   0.7222222   0.8018754   0.0000000), wk =   0.0000000
        k(  157) = (  -0.5000000   0.2886751   0.0000000), wk =   0.0061728
        k(  158) = (  -0.2777778   0.8018754   0.0000000), wk =   0.0000000
        k(  159) = (   0.0555556  -0.0962250   0.0000000), wk =   0.0061728
        k(  160) = (   0.2777778   0.4169752   0.0000000), wk =   0.0000000
        k(  161) = (  -0.1111111  -0.0000000   0.0000000), wk =   0.0061728
        k(  162) = (   0.1111111   0.5132002   0.0000000), wk =   0.0000000
        k(  163) = (  -0.0555556  -0.0962250   0.0000000), wk =   0.0061728
        k(  164) = (   0.1666667   0.4169752   0.0000000), wk =   0.0000000
        k(  165) = (  -0.0555556   0.0962250   0.0000000), wk =   0.0061728
        k(  166) = (   0.1666667   0.6094253   0.0000000), wk =   0.0000000
        k(  167) = (   0.1111111   0.0000000   0.0000000), wk =   0.0061728
        k(  168) = (   0.3333333   0.5132002   0.0000000), wk =   0.0000000
        k(  169) = (   0.0555556  -0.1603751   0.0000000), wk =   0.0061728
        k(  170) = (   0.2777778   0.3528252   0.0000000), wk =   0.0000000
        k(  171) = (  -0.1666667  -0.0320750   0.0000000), wk =   0.0061728
        k(  172) = (   0.0555556   0.4811252   0.0000000), wk =   0.0000000
        k(  173) = (   0.1111111  -0.1283001   0.0000000), wk =   0.0061728
        k(  174) = (   0.3333333   0.3849002   0.0000000), wk =   0.0000000
        k(  175) = (  -0.1666667   0.0320750   0.0000000), wk =   0.0061728
        k(  176) = (   0.0555556   0.5452753   0.0000000), wk =   0.0000000
        k(  177) = (   0.1111111   0.1283001   0.0000000), wk =   0.0061728
        k(  178) = (   0.3333333   0.6415003   0.0000000), wk =   0.0000000
        k(  179) = (  -0.0555556  -0.1603751   0.0000000), wk =   0.0061728
        k(  180) = (   0.1666667   0.3528252   0.0000000), wk =   0.0000000
        k(  181) = (  -0.0555556   0.1603751   0.0000000), wk =   0.0061728
        k(  182) = (   0.1666667   0.6735753   0.0000000), wk =   0.0000000
        k(  183) = (   0.1666667   0.0320750   0.0000000), wk =   0.0061728
        k(  184) = (   0.3888889   0.5452753   0.0000000), wk =   0.0000000
        k(  185) = (  -0.1111111   0.1283001   0.0000000), wk =   0.0061728
        k(  186) = (   0.1111111   0.6415003   0.0000000), wk =   0.0000000
        k(  187) = (   0.1666667  -0.0320750   0.0000000), wk =   0.0061728
        k(  188) = (   0.3888889   0.4811252   0.0000000), wk =   0.0000000
        k(  189) = (  -0.1111111  -0.1283001   0.0000000), wk =   0.0061728
        k(  190) = (   0.1111111   0.3849002   0.0000000), wk =   0.0000000
        k(  191) = (   0.0555556  -0.2245251   0.0000000), wk =   0.0061728
        k(  192) = (   0.2777778   0.2886751   0.0000000), wk =   0.0000000
        k(  193) = (  -0.2222222  -0.0641500   0.0000000), wk =   0.0061728
        k(  194) = (   0.0000000   0.4490502   0.0000000), wk =   0.0000000
        k(  195) = (   0.1666667  -0.1603751   0.0000000), wk =   0.0061728
        k(  196) = (   0.3888889   0.3528252   0.0000000), wk =   0.0000000
        k(  197) = (  -0.2222222   0.0641500   0.0000000), wk =   0.0061728
        k(  198) = (   0.0000000   0.5773503   0.0000000), wk =   0.0000000
        k(  199) = (   0.1666667   0.1603751   0.0000000), wk =   0.0061728
        k(  200) = (   0.3888889   0.6735753   0.0000000), wk =   0.0000000
        k(  201) = (  -0.0555556  -0.2245251   0.0000000), wk =   0.0061728
        k(  202) = (   0.1666667   0.2886751   0.0000000), wk =   0.0000000
        k(  203) = (  -0.0555556   0.2245251   0.0000000), wk =   0.0061728
        k(  204) = (   0.1666667   0.7377253   0.0000000), wk =   0.0000000
        k(  205) = (   0.2222222   0.0641500   0.0000000), wk =   0.0061728
        k(  206) = (   0.4444444   0.5773503   0.0000000), wk =   0.0000000
        k(  207) = (  -0.1666667   0.1603751   0.0000000), wk =   0.0061728
        k(  208) = (   0.0555556   0.6735753   0.0000000), wk =   0.0000000
        k(  209) = (   0.2222222  -0.0641500   0.0000000), wk =   0.0061728
        k(  210) = (   0.4444444   0.4490502   0.0000000), wk =   0.0000000
        k(  211) = (  -0.1666667  -0.1603751   0.0000000), wk =   0.0061728
        k(  212) = (   0.0555556   0.3528252   0.0000000), wk =   0.0000000
        k(  213) = (   0.0555556  -0.2886751   0.0000000), wk =   0.0061728
        k(  214) = (   0.2777778   0.2245251   0.0000000), wk =   0.0000000
        k(  215) = (  -0.2777778  -0.0962250   0.0000000), wk =   0.0061728
        k(  216) = (  -0.0555556   0.4169752   0.0000000), wk =   0.0000000
        k(  217) = (   0.2222222  -0.1924501   0.0000000), wk =   0.0061728
        k(  218) = (   0.4444444   0.3207501   0.0000000), wk =   0.0000000
        k(  219) = (  -0.2777778   0.0962250   0.0000000), wk =   0.0061728
        k(  220) = (  -0.0555556   0.6094253   0.0000000), wk =   0.0000000
        k(  221) = (   0.2222222   0.1924501   0.0000000), wk =   0.0061728
        k(  222) = (   0.4444444   0.7056503   0.0000000), wk =   0.0000000
        k(  223) = (  -0.0555556  -0.2886751   0.0000000), wk =   0.0061728
        k(  224) = (   0.1666667   0.2245251   0.0000000), wk =   0.0000000
        k(  225) = (  -0.0555556   0.2886751   0.0000000), wk =   0.0061728
        k(  226) = (   0.1666667   0.8018754   0.0000000), wk =   0.0000000
        k(  227) = (   0.2777778   0.0962250   0.0000000), wk =   0.0061728
        k(  228) = (   0.5000000   0.6094253   0.0000000), wk =   0.0000000
        k(  229) = (  -0.2222222   0.1924501   0.0000000), wk =   0.0061728
        k(  230) = (   0.0000000   0.7056503   0.0000000), wk =   0.0000000
        k(  231) = (   0.2777778  -0.0962250   0.0000000), wk =   0.0061728
        k(  232) = (   0.5000000   0.4169752   0.0000000), wk =   0.0000000
        k(  233) = (  -0.2222222  -0.1924501   0.0000000), wk =   0.0061728
        k(  234) = (   0.0000000   0.3207501   0.0000000), wk =   0.0000000
        k(  235) = (   0.0555556  -0.3528252   0.0000000), wk =   0.0061728
        k(  236) = (   0.2777778   0.1603751   0.0000000), wk =   0.0000000
        k(  237) = (  -0.3333333  -0.1283001   0.0000000), wk =   0.0061728
        k(  238) = (  -0.1111111   0.3849002   0.0000000), wk =   0.0000000
        k(  239) = (   0.2777778  -0.2245251   0.0000000), wk =   0.0061728
        k(  240) = (   0.5000000   0.2886751   0.0000000), wk =   0.0000000
        k(  241) = (  -0.3333333   0.1283001   0.0000000), wk =   0.0061728
        k(  242) = (  -0.1111111   0.6415003   0.0000000), wk =   0.0000000
        k(  243) = (   0.2777778   0.2245251   0.0000000), wk =   0.0061728
        k(  244) = (   0.5000000   0.7377253   0.0000000), wk =   0.0000000
        k(  245) = (  -0.0555556  -0.3528252   0.0000000), wk =   0.0061728
        k(  246) = (   0.1666667   0.1603751   0.0000000), wk =   0.0000000
        k(  247) = (  -0.0555556   0.3528252   0.0000000), wk =   0.0061728
        k(  248) = (   0.1666667   0.8660254   0.0000000), wk =   0.0000000
        k(  249) = (   0.3333333   0.1283001   0.0000000), wk =   0.0061728
        k(  250) = (   0.5555556   0.6415003   0.0000000), wk =   0.0000000
        k(  251) = (  -0.2777778   0.2245251   0.0000000), wk =   0.0061728
        k(  252) = (  -0.0555556   0.7377253   0.0000000), wk =   0.0000000
        k(  253) = (   0.3333333  -0.1283001   0.0000000), wk =   0.0061728
        k(  254) = (   0.5555556   0.3849002   0.0000000), wk =   0.0000000
        k(  255) = (  -0.2777778  -0.2245251   0.0000000), wk =   0.0061728
        k(  256) = (  -0.0555556   0.2886751   0.0000000), wk =   0.0000000
        k(  257) = (   0.0555556  -0.4169752   0.0000000), wk =   0.0061728
        k(  258) = (   0.2777778   0.0962250   0.0000000), wk =   0.0000000
        k(  259) = (  -0.3888889  -0.1603751   0.0000000), wk =   0.0061728
        k(  260) = (  -0.1666667   0.3528252   0.0000000), wk =   0.0000000
        k(  261) = (   0.3333333  -0.2566001   0.0000000), wk =   0.0061728
        k(  262) = (   0.5555556   0.2566001   0.0000000), wk =   0.0000000
        k(  263) = (  -0.3888889   0.1603751   0.0000000), wk =   0.0061728
        k(  264) = (  -0.1666667   0.6735753   0.0000000), wk =   0.0000000
        k(  265) = (   0.3333333   0.2566001   0.0000000), wk =   0.0061728
        k(  266) = (   0.5555556   0.7698004   0.0000000), wk =   0.0000000
        k(  267) = (  -0.0555556  -0.4169752   0.0000000), wk =   0.0061728
        k(  268) = (   0.1666667   0.0962250   0.0000000), wk =   0.0000000
        k(  269) = (  -0.0555556   0.4169752   0.0000000), wk =   0.0061728
        k(  270) = (   0.1666667   0.9301754   0.0000000), wk =   0.0000000
        k(  271) = (   0.3888889   0.1603751   0.0000000), wk =   0.0061728
        k(  272) = (   0.6111111   0.6735753   0.0000000), wk =   0.0000000
        k(  273) = (  -0.3333333   0.2566001   0.0000000), wk =   0.0061728
        k(  274) = (  -0.1111111   0.7698004   0.0000000), wk =   0.0000000
        k(  275) = (   0.3888889  -0.1603751   0.0000000), wk =   0.0061728
        k(  276) = (   0.6111111   0.3528252   0.0000000), wk =   0.0000000
        k(  277) = (  -0.3333333  -0.2566001   0.0000000), wk =   0.0061728
        k(  278) = (  -0.1111111   0.2566001   0.0000000), wk =   0.0000000
        k(  279) = (   0.0555556  -0.4811252   0.0000000), wk =   0.0061728
        k(  280) = (   0.2777778   0.0320750   0.0000000), wk =   0.0000000
        k(  281) = (  -0.4444444  -0.1924501   0.0000000), wk =   0.0061728
        k(  282) = (  -0.2222222   0.3207501   0.0000000), wk =   0.0000000
        k(  283) = (   0.3888889  -0.2886751   0.0000000), wk =   0.0061728
        k(  284) = (   0.6111111   0.2245251   0.0000000), wk =   0.0000000
        k(  285) = (  -0.4444444   0.1924501   0.0000000), wk =   0.0061728
        k(  286) = (  -0.2222222   0.7056503   0.0000000), wk =   0.0000000
        k(  287) = (   0.3888889   0.2886751   0.0000000), wk =   0.0061728
        k(  288) = (   0.6111111   0.8018754   0.0000000), wk =   0.0000000
        k(  289) = (  -0.0555556  -0.4811252   0.0000000), wk =   0.0061728
        k(  290) = (   0.1666667   0.0320750   0.0000000), wk =   0.0000000
        k(  291) = (  -0.0555556   0.4811252   0.0000000), wk =   0.0061728
        k(  292) = (   0.1666667   0.9943255   0.0000000), wk =   0.0000000
        k(  293) = (   0.4444444   0.1924501   0.0000000), wk =   0.0061728
        k(  294) = (   0.6666667   0.7056503   0.0000000), wk =   0.0000000
        k(  295) = (  -0.3888889   0.2886751   0.0000000), wk =   0.0061728
        k(  296) = (  -0.1666667   0.8018754   0.0000000), wk =   0.0000000
        k(  297) = (   0.4444444  -0.1924501   0.0000000), wk =   0.0061728
        k(  298) = (   0.6666667   0.3207501   0.0000000), wk =   0.0000000
        k(  299) = (  -0.3888889  -0.2886751   0.0000000), wk =   0.0061728
        k(  300) = (  -0.1666667   0.2245251   0.0000000), wk =   0.0000000
        k(  301) = (   0.0555556  -0.5452753   0.0000000), wk =   0.0061728
        k(  302) = (   0.2777778  -0.0320750   0.0000000), wk =   0.0000000
        k(  303) = (  -0.5000000  -0.2245251   0.0000000), wk =   0.0061728
        k(  304) = (  -0.2777778   0.2886751   0.0000000), wk =   0.0000000
        k(  305) = (   0.4444444  -0.3207501   0.0000000), wk =   0.0061728
        k(  306) = (   0.6666667   0.1924501   0.0000000), wk =   0.0000000
        k(  307) = (  -0.5000000   0.2245251   0.0000000), wk =   0.0061728
        k(  308) = (  -0.2777778   0.7377253   0.0000000), wk =   0.0000000
        k(  309) = (   0.4444444   0.3207501   0.0000000), wk =   0.0061728
        k(  310) = (   0.6666667   0.8339504   0.0000000), wk =   0.0000000
        k(  311) = (  -0.0555556  -0.5452753   0.0000000), wk =   0.0061728
        k(  312) = (   0.1666667  -0.0320750   0.0000000), wk =   0.0000000
        k(  313) = (  -0.0555556   0.5452753   0.0000000), wk =   0.0061728
        k(  314) = (   0.1666667   1.0584755   0.0000000), wk =   0.0000000
        k(  315) = (   0.5000000   0.2245251   0.0000000), wk =   0.0061728
        k(  316) = (   0.7222222   0.7377253   0.0000000), wk =   0.0000000
        k(  317) = (  -0.4444444   0.3207501   0.0000000), wk =   0.0061728
        k(  318) = (  -0.2222222   0.8339504   0.0000000), wk =   0.0000000
        k(  319) = (   0.5000000  -0.2245251   0.0000000), wk =   0.0061728
        k(  320) = (   0.7222222   0.2886751   0.0000000), wk =   0.0000000
        k(  321) = (  -0.4444444  -0.3207501   0.0000000), wk =   0.0061728
        k(  322) = (  -0.2222222   0.1924501   0.0000000), wk =   0.0000000
        k(  323) = (   0.1111111  -0.1924501   0.0000000), wk =   0.0061728
        k(  324) = (   0.3333333   0.3207501   0.0000000), wk =   0.0000000
        k(  325) = (  -0.2222222  -0.0000000   0.0000000), wk =   0.0061728
        k(  326) = (   0.0000000   0.5132002   0.0000000), wk =   0.0000000
        k(  327) = (  -0.1111111  -0.1924501   0.0000000), wk =   0.0061728
        k(  328) = (   0.1111111   0.3207501   0.0000000), wk =   0.0000000
        k(  329) = (  -0.1111111   0.1924501   0.0000000), wk =   0.0061728
        k(  330) = (   0.1111111   0.7056503   0.0000000), wk =   0.0000000
        k(  331) = (   0.2222222   0.0000000   0.0000000), wk =   0.0061728
        k(  332) = (   0.4444444   0.5132002   0.0000000), wk =   0.0000000
        k(  333) = (   0.1111111  -0.2566001   0.0000000), wk =   0.0061728
        k(  334) = (   0.3333333   0.2566001   0.0000000), wk =   0.0000000
        k(  335) = (  -0.2777778  -0.0320750   0.0000000), wk =   0.0061728
        k(  336) = (  -0.0555556   0.4811252   0.0000000), wk =   0.0000000
        k(  337) = (   0.1666667  -0.2245251   0.0000000), wk =   0.0061728
        k(  338) = (   0.3888889   0.2886751   0.0000000), wk =   0.0000000
        k(  339) = (  -0.2777778   0.0320750   0.0000000), wk =   0.0061728
        k(  340) = (  -0.0555556   0.5452753   0.0000000), wk =   0.0000000
        k(  341) = (   0.1666667   0.2245251   0.0000000), wk =   0.0061728
        k(  342) = (   0.3888889   0.7377253   0.0000000), wk =   0.0000000
        k(  343) = (  -0.1111111  -0.2566001   0.0000000), wk =   0.0061728
        k(  344) = (   0.1111111   0.2566001   0.0000000), wk =   0.0000000
        k(  345) = (  -0.1111111   0.2566001   0.0000000), wk =   0.0061728
        k(  346) = (   0.1111111   0.7698004   0.0000000), wk =   0.0000000
        k(  347) = (   0.2777778   0.0320750   0.0000000), wk =   0.0061728
        k(  348) = (   0.5000000   0.5452753   0.0000000), wk =   0.0000000
        k(  349) = (  -0.1666667   0.2245251   0.0000000), wk =   0.0061728
        k(  350) = (   0.0555556   0.7377253   0.0000000), wk =   0.0000000
        k(  351) = (   0.2777778  -0.0320750   0.0000000), wk =   0.0061728
        k(  352) = (   0.5000000   0.4811252   0.0000000), wk =   0.0000000
        k(  353) = (  -0.1666667  -0.2245251   0.0000000), wk =   0.0061728
        k(  354) = (   0.0555556   0.2886751   0.0000000), wk =   0.0000000
        k(  355) = (   0.1111111  -0.3207501   0.0000000), wk =   0.0061728
        k(  356) = (   0.3333333   0.1924501   0.0000000), wk =   0.0000000
        k(  357) = (  -0.3333333  -0.0641500   0.0000000), wk =   0.0061728
        k(  358) = (  -0.1111111   0.4490502   0.0000000), wk =   0.0000000
        k(  359) = (   0.2222222  -0.2566001   0.0000000), wk =   0.0061728
        k(  360) = (   0.4444444   0.2566001   0.0000000), wk =   0.0000000
        k(  361) = (  -0.3333333   0.0641500   0.0000000), wk =   0.0061728
        k(  362) = (  -0.1111111   0.5773503   0.0000000), wk =   0.0000000
        k(  363) = (   0.2222222   0.2566001   0.0000000), wk =   0.0061728
        k(  364) = (   0.4444444   0.7698004   0.0000000), wk =   0.0000000
        k(  365) = (  -0.1111111  -0.3207501   0.0000000), wk =   0.0061728
        k(  366) = (   0.1111111   0.1924501   0.0000000), wk =   0.0000000
        k(  367) = (  -0.1111111   0.3207501   0.0000000), wk =   0.0061728
        k(  368) = (   0.1111111   0.8339504   0.0000000), wk =   0.0000000
        k(  369) = (   0.3333333   0.0641500   0.0000000), wk =   0.0061728
        k(  370) = (   0.5555556   0.5773503   0.0000000), wk =   0.0000000
        k(  371) = (  -0.2222222   0.2566001   0.0000000), wk =   0.0061728
        k(  372) = (   0.0000000   0.7698004   0.0000000), wk =   0.0000000
        k(  373) = (   0.3333333  -0.0641500   0.0000000), wk =   0.0061728
        k(  374) = (   0.5555556   0.4490502   0.0000000), wk =   0.0000000
        k(  375) = (  -0.2222222  -0.2566001   0.0000000), wk =   0.0061728
        k(  376) = (   0.0000000   0.2566001   0.0000000), wk =   0.0000000
        k(  377) = (   0.1111111  -0.3849002   0.0000000), wk =   0.0061728
        k(  378) = (   0.3333333   0.1283001   0.0000000), wk =   0.0000000
        k(  379) = (  -0.3888889  -0.0962250   0.0000000), wk =   0.0061728
        k(  380) = (  -0.1666667   0.4169752   0.0000000), wk =   0.0000000
        k(  381) = (   0.2777778  -0.2886751   0.0000000), wk =   0.0061728
        k(  382) = (   0.5000000   0.2245251   0.0000000), wk =   0.0000000
        k(  383) = (  -0.3888889   0.0962250   0.0000000), wk =   0.0061728
        k(  384) = (  -0.1666667   0.6094253   0.0000000), wk =   0.0000000
        k(  385) = (   0.2777778   0.2886751   0.0000000), wk =   0.0061728
        k(  386) = (   0.5000000   0.8018754   0.0000000), wk =   0.0000000
        k(  387) = (  -0.1111111  -0.3849002   0.0000000), wk =   0.0061728
        k(  388) = (   0.1111111   0.1283001   0.0000000), wk =   0.0000000
        k(  389) = (  -0.1111111   0.3849002   0.0000000), wk =   0.0061728
        k(  390) = (   0.1111111   0.8981004   0.0000000), wk =   0.0000000
        k(  391) = (   0.3888889   0.0962250   0.0000000), wk =   0.0061728
        k(  392) = (   0.6111111   0.6094253   0.0000000), wk =   0.0000000
        k(  393) = (  -0.2777778   0.2886751   0.0000000), wk =   0.0061728
        k(  394) = (  -0.0555556   0.8018754   0.0000000), wk =   0.0000000
        k(  395) = (   0.3888889  -0.0962250   0.0000000), wk =   0.0061728
        k(  396) = (   0.6111111   0.4169752   0.0000000), wk =   0.0000000
        k(  397) = (  -0.2777778  -0.2886751   0.0000000), wk =   0.0061728
        k(  398) = (  -0.0555556   0.2245251   0.0000000), wk =   0.0000000
        k(  399) = (   0.1111111  -0.4490502   0.0000000), wk =   0.0061728
        k(  400) = (   0.3333333   0.0641500   0.0000000), wk =   0.0000000
        k(  401) = (  -0.4444444  -0.1283001   0.0000000), wk =   0.0061728
        k(  402) = (  -0.2222222   0.3849002   0.0000000), wk =   0.0000000
        k(  403) = (   0.3333333  -0.3207501   0.0000000), wk =   0.0061728
        k(  404) = (   0.5555556   0.1924501   0.0000000), wk =   0.0000000
        k(  405) = (  -0.4444444   0.1283001   0.0000000), wk =   0.0061728
        k(  406) = (  -0.2222222   0.6415003   0.0000000), wk =   0.0000000
        k(  407) = (   0.3333333   0.3207501   0.0000000), wk =   0.0061728
        k(  408) = (   0.5555556   0.8339504   0.0000000), wk =   0.0000000
        k(  409) = (  -0.1111111  -0.4490502   0.0000000), wk =   0.0061728
        k(  410) = (   0.1111111   0.0641500   0.0000000), wk =   0.0000000
        k(  411) = (  -0.1111111   0.4490502   0.0000000), wk =   0.0061728
        k(  412) = (   0.1111111   0.9622504   0.0000000), wk =   0.0000000
        k(  413) = (   0.4444444   0.1283001   0.0000000), wk =   0.0061728
        k(  414) = (   0.6666667   0.6415003   0.0000000), wk =   0.0000000
        k(  415) = (  -0.3333333   0.3207501   0.0000000), wk =   0.0061728
        k(  416) = (  -0.1111111   0.8339504   0.0000000), wk =   0.0000000
        k(  417) = (   0.4444444  -0.1283001   0.0000000), wk =   0.0061728
        k(  418) = (   0.6666667   0.3849002   0.0000000), wk =   0.0000000
        k(  419) = (  -0.3333333  -0.3207501   0.0000000), wk =   0.0061728
        k(  420) = (  -0.1111111   0.1924501   0.0000000), wk =   0.0000000
        k(  421) = (   0.1111111  -0.5132002   0.0000000), wk =   0.0061728
        k(  422) = (   0.3333333   0.0000000   0.0000000), wk =   0.0000000
        k(  423) = (  -0.5000000  -0.1603751   0.0000000), wk =   0.0061728
        k(  424) = (  -0.2777778   0.3528252   0.0000000), wk =   0.0000000
        k(  425) = (   0.3888889  -0.3528252   0.0000000), wk =   0.0061728
        k(  426) = (   0.6111111   0.1603751   0.0000000), wk =   0.0000000
        k(  427) = (  -0.5000000   0.1603751   0.0000000), wk =   0.0061728
        k(  428) = (  -0.2777778   0.6735753   0.0000000), wk =   0.0000000
        k(  429) = (   0.3888889   0.3528252   0.0000000), wk =   0.0061728
        k(  430) = (   0.6111111   0.8660254   0.0000000), wk =   0.0000000
        k(  431) = (  -0.1111111  -0.5132002   0.0000000), wk =   0.0061728
        k(  432) = (   0.1111111   0.0000000   0.0000000), wk =   0.0000000
        k(  433) = (  -0.1111111   0.5132002   0.0000000), wk =   0.0061728
        k(  434) = (   0.1111111   1.0264005   0.0000000), wk =   0.0000000
        k(  435) = (   0.5000000   0.1603751   0.0000000), wk =   0.0061728
        k(  436) = (   0.7222222   0.6735753   0.0000000), wk =   0.0000000
        k(  437) = (  -0.3888889   0.3528252   0.0000000), wk =   0.0061728
        k(  438) = (  -0.1666667   0.8660254   0.0000000), wk =   0.0000000
        k(  439) = (   0.5000000  -0.1603751   0.0000000), wk =   0.0061728
        k(  440) = (   0.7222222   0.3528252   0.0000000), wk =   0.0000000
        k(  441) = (  -0.3888889  -0.3528252   0.0000000), wk =   0.0061728
        k(  442) = (  -0.1666667   0.1603751   0.0000000), wk =   0.0000000
        k(  443) = (  -0.5555556  -0.1924501   0.0000000), wk =   0.0061728
        k(  444) = (  -0.3333333   0.3207501   0.0000000), wk =   0.0000000
        k(  445) = (   0.4444444  -0.3849002   0.0000000), wk =   0.0061728
        k(  446) = (   0.6666667   0.1283001   0.0000000), wk =   0.0000000
        k(  447) = (  -0.1111111  -0.5773503   0.0000000), wk =   0.0061728
        k(  448) = (   0.1111111  -0.0641500   0.0000000), wk =   0.0000000
        k(  449) = (   0.5555556   0.1924501   0.0000000), wk =   0.0061728
        k(  450) = (   0.7777778   0.7056503   0.0000000), wk =   0.0000000
        k(  451) = (  -0.4444444   0.3849002   0.0000000), wk =   0.0061728
        k(  452) = (  -0.2222222   0.8981004   0.0000000), wk =   0.0000000
        k(  453) = (   0.1666667  -0.2886751   0.0000000), wk =   0.0061728
        k(  454) = (   0.3888889   0.2245251   0.0000000), wk =   0.0000000
        k(  455) = (  -0.3333333  -0.0000000   0.0000000), wk =   0.0061728
        k(  456) = (  -0.1111111   0.5132002   0.0000000), wk =   0.0000000
        k(  457) = (  -0.1666667  -0.2886751   0.0000000), wk =   0.0061728
        k(  458) = (   0.0555556   0.2245251   0.0000000), wk =   0.0000000
        k(  459) = (  -0.1666667   0.2886751   0.0000000), wk =   0.0061728
        k(  460) = (   0.0555556   0.8018754   0.0000000), wk =   0.0000000
        k(  461) = (   0.3333333   0.0000000   0.0000000), wk =   0.0061728
        k(  462) = (   0.5555556   0.5132002   0.0000000), wk =   0.0000000
        k(  463) = (   0.1666667  -0.3528252   0.0000000), wk =   0.0061728
        k(  464) = (   0.3888889   0.1603751   0.0000000), wk =   0.0000000
        k(  465) = (  -0.3888889  -0.0320750   0.0000000), wk =   0.0061728
        k(  466) = (  -0.1666667   0.4811252   0.0000000), wk =   0.0000000
        k(  467) = (   0.2222222  -0.3207501   0.0000000), wk =   0.0061728
        k(  468) = (   0.4444444   0.1924501   0.0000000), wk =   0.0000000
        k(  469) = (  -0.3888889   0.0320750   0.0000000), wk =   0.0061728
        k(  470) = (  -0.1666667   0.5452753   0.0000000), wk =   0.0000000
        k(  471) = (   0.2222222   0.3207501   0.0000000), wk =   0.0061728
        k(  472) = (   0.4444444   0.8339504   0.0000000), wk =   0.0000000
        k(  473) = (  -0.1666667  -0.3528252   0.0000000), wk =   0.0061728
        k(  474) = (   0.0555556   0.1603751   0.0000000), wk =   0.0000000
        k(  475) = (  -0.1666667   0.3528252   0.0000000), wk =   0.0061728
        k(  476) = (   0.0555556   0.8660254   0.0000000), wk =   0.0000000
        k(  477) = (   0.3888889   0.0320750   0.0000000), wk =   0.0061728
        k(  478) = (   0.6111111   0.5452753   0.0000000), wk =   0.0000000
        k(  479) = (  -0.2222222   0.3207501   0.0000000), wk =   0.0061728
        k(  480) = (  -0.0000000   0.8339504   0.0000000), wk =   0.0000000
        k(  481) = (   0.3888889  -0.0320750   0.0000000), wk =   0.0061728
        k(  482) = (   0.6111111   0.4811252   0.0000000), wk =   0.0000000
        k(  483) = (  -0.2222222  -0.3207501   0.0000000), wk =   0.0061728
        k(  484) = (  -0.0000000   0.1924501   0.0000000), wk =   0.0000000
        k(  485) = (   0.1666667  -0.4169752   0.0000000), wk =   0.0061728
        k(  486) = (   0.3888889   0.0962250   0.0000000), wk =   0.0000000
        k(  487) = (  -0.4444444  -0.0641500   0.0000000), wk =   0.0061728
        k(  488) = (  -0.2222222   0.4490502   0.0000000), wk =   0.0000000
        k(  489) = (   0.2777778  -0.3528252   0.0000000), wk =   0.0061728
        k(  490) = (   0.5000000   0.1603751   0.0000000), wk =   0.0000000
        k(  491) = (  -0.4444444   0.0641500   0.0000000), wk =   0.0061728
        k(  492) = (  -0.2222222   0.5773503   0.0000000), wk =   0.0000000
        k(  493) = (   0.2777778   0.3528252   0.0000000), wk =   0.0061728
        k(  494) = (   0.5000000   0.8660254   0.0000000), wk =   0.0000000
        k(  495) = (  -0.1666667  -0.4169752   0.0000000), wk =   0.0061728
        k(  496) = (   0.0555556   0.0962250   0.0000000), wk =   0.0000000
        k(  497) = (  -0.1666667   0.4169752   0.0000000), wk =   0.0061728
        k(  498) = (   0.0555556   0.9301754   0.0000000), wk =   0.0000000
        k(  499) = (   0.4444444   0.0641500   0.0000000), wk =   0.0061728
        k(  500) = (   0.6666667   0.5773503   0.0000000), wk =   0.0000000
        k(  501) = (  -0.2777778   0.3528252   0.0000000), wk =   0.0061728
        k(  502) = (  -0.0555556   0.8660254   0.0000000), wk =   0.0000000
        k(  503) = (   0.4444444  -0.0641500   0.0000000), wk =   0.0061728
        k(  504) = (   0.6666667   0.4490502   0.0000000), wk =   0.0000000
        k(  505) = (  -0.2777778  -0.3528252   0.0000000), wk =   0.0061728
        k(  506) = (  -0.0555556   0.1603751   0.0000000), wk =   0.0000000
        k(  507) = (   0.1666667  -0.4811252   0.0000000), wk =   0.0061728
        k(  508) = (   0.3888889   0.0320750   0.0000000), wk =   0.0000000
        k(  509) = (  -0.5000000  -0.0962250   0.0000000), wk =   0.0061728
        k(  510) = (  -0.2777778   0.4169752   0.0000000), wk =   0.0000000
        k(  511) = (   0.3333333  -0.3849002   0.0000000), wk =   0.0061728
        k(  512) = (   0.5555556   0.1283001   0.0000000), wk =   0.0000000
        k(  513) = (  -0.5000000   0.0962250   0.0000000), wk =   0.0061728
        k(  514) = (  -0.2777778   0.6094253   0.0000000), wk =   0.0000000
        k(  515) = (   0.3333333   0.3849002   0.0000000), wk =   0.0061728
        k(  516) = (   0.5555556   0.8981004   0.0000000), wk =   0.0000000
        k(  517) = (  -0.1666667  -0.4811252   0.0000000), wk =   0.0061728
        k(  518) = (   0.0555556   0.0320750   0.0000000), wk =   0.0000000
        k(  519) = (  -0.1666667   0.4811252   0.0000000), wk =   0.0061728
        k(  520) = (   0.0555556   0.9943255   0.0000000), wk =   0.0000000
        k(  521) = (   0.5000000   0.0962250   0.0000000), wk =   0.0061728
        k(  522) = (   0.7222222   0.6094253   0.0000000), wk =   0.0000000
        k(  523) = (  -0.3333333   0.3849002   0.0000000), wk =   0.0061728
        k(  524) = (  -0.1111111   0.8981004   0.0000000), wk =   0.0000000
        k(  525) = (   0.5000000  -0.0962250   0.0000000), wk =   0.0061728
        k(  526) = (   0.7222222   0.4169752   0.0000000), wk =   0.0000000
        k(  527) = (  -0.3333333  -0.3849002   0.0000000), wk =   0.0061728
        k(  528) = (  -0.1111111   0.1283001   0.0000000), wk =   0.0000000
        k(  529) = (   0.1666667  -0.5452753   0.0000000), wk =   0.0061728
        k(  530) = (   0.3888889  -0.0320750   0.0000000), wk =   0.0000000
        k(  531) = (  -0.5555556  -0.1283001   0.0000000), wk =   0.0061728
        k(  532) = (  -0.3333333   0.3849002   0.0000000), wk =   0.0000000
        k(  533) = (   0.3888889  -0.4169752   0.0000000), wk =   0.0061728
        k(  534) = (   0.6111111   0.0962250   0.0000000), wk =   0.0000000
        k(  535) = (  -0.5555556   0.1283001   0.0000000), wk =   0.0061728
        k(  536) = (  -0.3333333   0.6415003   0.0000000), wk =   0.0000000
        k(  537) = (   0.3888889   0.4169752   0.0000000), wk =   0.0061728
        k(  538) = (   0.6111111   0.9301754   0.0000000), wk =   0.0000000
        k(  539) = (  -0.1666667  -0.5452753   0.0000000), wk =   0.0061728
        k(  540) = (   0.0555556  -0.0320750   0.0000000), wk =   0.0000000
        k(  541) = (  -0.1666667   0.5452753   0.0000000), wk =   0.0061728
        k(  542) = (   0.0555556   1.0584755   0.0000000), wk =   0.0000000
        k(  543) = (   0.5555556   0.1283001   0.0000000), wk =   0.0061728
        k(  544) = (   0.7777778   0.6415003   0.0000000), wk =   0.0000000
        k(  545) = (  -0.3888889   0.4169752   0.0000000), wk =   0.0061728
        k(  546) = (  -0.1666667   0.9301754   0.0000000), wk =   0.0000000
        k(  547) = (   0.5555556  -0.1283001   0.0000000), wk =   0.0061728
        k(  548) = (   0.7777778   0.3849002   0.0000000), wk =   0.0000000
        k(  549) = (  -0.3888889  -0.4169752   0.0000000), wk =   0.0061728
        k(  550) = (  -0.1666667   0.0962250   0.0000000), wk =   0.0000000
        k(  551) = (   0.2222222  -0.3849002   0.0000000), wk =   0.0061728
        k(  552) = (   0.4444444   0.1283001   0.0000000), wk =   0.0000000
        k(  553) = (  -0.4444444  -0.0000000   0.0000000), wk =   0.0061728
        k(  554) = (  -0.2222222   0.5132002   0.0000000), wk =   0.0000000
        k(  555) = (  -0.2222222  -0.3849002   0.0000000), wk =   0.0061728
        k(  556) = (   0.0000000   0.1283001   0.0000000), wk =   0.0000000
        k(  557) = (  -0.2222222   0.3849002   0.0000000), wk =   0.0061728
        k(  558) = (   0.0000000   0.8981004   0.0000000), wk =   0.0000000
        k(  559) = (   0.4444444   0.0000000   0.0000000), wk =   0.0061728
        k(  560) = (   0.6666667   0.5132002   0.0000000), wk =   0.0000000
        k(  561) = (   0.2222222  -0.4490502   0.0000000), wk =   0.0061728
        k(  562) = (   0.4444444   0.0641500   0.0000000), wk =   0.0000000
        k(  563) = (  -0.5000000  -0.0320750   0.0000000), wk =   0.0061728
        k(  564) = (  -0.2777778   0.4811252   0.0000000), wk =   0.0000000
        k(  565) = (   0.2777778  -0.4169752   0.0000000), wk =   0.0061728
        k(  566) = (   0.5000000   0.0962250   0.0000000), wk =   0.0000000
        k(  567) = (  -0.5000000   0.0320750   0.0000000), wk =   0.0061728
        k(  568) = (  -0.2777778   0.5452753   0.0000000), wk =   0.0000000
        k(  569) = (   0.2777778   0.4169752   0.0000000), wk =   0.0061728
        k(  570) = (   0.5000000   0.9301754   0.0000000), wk =   0.0000000
        k(  571) = (  -0.2222222  -0.4490502   0.0000000), wk =   0.0061728
        k(  572) = (   0.0000000   0.0641500   0.0000000), wk =   0.0000000
        k(  573) = (  -0.2222222   0.4490502   0.0000000), wk =   0.0061728
        k(  574) = (   0.0000000   0.9622504   0.0000000), wk =   0.0000000
        k(  575) = (   0.5000000   0.0320750   0.0000000), wk =   0.0061728
        k(  576) = (   0.7222222   0.5452753   0.0000000), wk =   0.0000000
        k(  577) = (  -0.2777778   0.4169752   0.0000000), wk =   0.0061728
        k(  578) = (  -0.0555556   0.9301754   0.0000000), wk =   0.0000000
        k(  579) = (   0.5000000  -0.0320750   0.0000000), wk =   0.0061728
        k(  580) = (   0.7222222   0.4811252   0.0000000), wk =   0.0000000
        k(  581) = (  -0.2777778  -0.4169752   0.0000000), wk =   0.0061728
        k(  582) = (  -0.0555556   0.0962250   0.0000000), wk =   0.0000000
        k(  583) = (   0.2222222  -0.5132002   0.0000000), wk =   0.0061728
        k(  584) = (   0.4444444   0.0000000   0.0000000), wk =   0.0000000
        k(  585) = (  -0.5555556  -0.0641500   0.0000000), wk =   0.0061728
        k(  586) = (  -0.3333333   0.4490502   0.0000000), wk =   0.0000000
        k(  587) = (   0.3333333  -0.4490502   0.0000000), wk =   0.0061728
        k(  588) = (   0.5555556   0.0641500   0.0000000), wk =   0.0000000
        k(  589) = (  -0.5555556   0.0641500   0.0000000), wk =   0.0061728
        k(  590) = (  -0.3333333   0.5773503   0.0000000), wk =   0.0000000
        k(  591) = (   0.3333333   0.4490502   0.0000000), wk =   0.0061728
        k(  592) = (   0.5555556   0.9622504   0.0000000), wk =   0.0000000
        k(  593) = (  -0.2222222  -0.5132002   0.0000000), wk =   0.0061728
        k(  594) = (   0.0000000   0.0000000   0.0000000), wk =   0.0000000
        k(  595) = (  -0.2222222   0.5132002   0.0000000), wk =   0.0061728
        k(  596) = (   0.0000000   1.0264005   0.0000000), wk =   0.0000000
        k(  597) = (   0.5555556   0.0641500   0.0000000), wk =   0.0061728
        k(  598) = (   0.7777778   0.5773503   0.0000000), wk =   0.0000000
        k(  599) = (  -0.3333333   0.4490502   0.0000000), wk =   0.0061728
        k(  600) = (  -0.1111111   0.9622504   0.0000000), wk =   0.0000000
        k(  601) = (   0.5555556  -0.0641500   0.0000000), wk =   0.0061728
        k(  602) = (   0.7777778   0.4490502   0.0000000), wk =   0.0000000
        k(  603) = (  -0.3333333  -0.4490502   0.0000000), wk =   0.0061728
        k(  604) = (  -0.1111111   0.0641500   0.0000000), wk =   0.0000000
        k(  605) = (  -0.6111111  -0.0962250   0.0000000), wk =   0.0061728
        k(  606) = (  -0.3888889   0.4169752   0.0000000), wk =   0.0000000
        k(  607) = (   0.3888889  -0.4811252   0.0000000), wk =   0.0061728
        k(  608) = (   0.6111111   0.0320750   0.0000000), wk =   0.0000000
        k(  609) = (  -0.2222222  -0.5773503   0.0000000), wk =   0.0061728
        k(  610) = (   0.0000000  -0.0641500   0.0000000), wk =   0.0000000
        k(  611) = (   0.6111111   0.0962250   0.0000000), wk =   0.0061728
        k(  612) = (   0.8333333   0.6094253   0.0000000), wk =   0.0000000
        k(  613) = (  -0.3888889   0.4811252   0.0000000), wk =   0.0061728
        k(  614) = (  -0.1666667   0.9943255   0.0000000), wk =   0.0000000
        k(  615) = (   0.2777778  -0.4811252   0.0000000), wk =   0.0061728
        k(  616) = (   0.5000000   0.0320750   0.0000000), wk =   0.0000000
        k(  617) = (  -0.5555556  -0.0000000   0.0000000), wk =   0.0061728
        k(  618) = (  -0.3333333   0.5132002   0.0000000), wk =   0.0000000
        k(  619) = (  -0.2777778  -0.4811252   0.0000000), wk =   0.0061728
        k(  620) = (  -0.0555556   0.0320750   0.0000000), wk =   0.0000000
        k(  621) = (  -0.2777778   0.4811252   0.0000000), wk =   0.0061728
        k(  622) = (  -0.0555556   0.9943255   0.0000000), wk =   0.0000000
        k(  623) = (   0.5555556   0.0000000   0.0000000), wk =   0.0061728
        k(  624) = (   0.7777778   0.5132002   0.0000000), wk =   0.0000000
        k(  625) = (   0.2777778  -0.5452753   0.0000000), wk =   0.0061728
        k(  626) = (   0.5000000  -0.0320750   0.0000000), wk =   0.0000000
        k(  627) = (  -0.6111111  -0.0320750   0.0000000), wk =   0.0061728
        k(  628) = (  -0.3888889   0.4811252   0.0000000), wk =   0.0000000
        k(  629) = (   0.3333333  -0.5132002   0.0000000), wk =   0.0061728
        k(  630) = (   0.5555556   0.0000000   0.0000000), wk =   0.0000000
        k(  631) = (  -0.6111111   0.0320750   0.0000000), wk =   0.0061728
        k(  632) = (  -0.3888889   0.5452753   0.0000000), wk =   0.0000000
        k(  633) = (   0.3333333   0.5132002   0.0000000), wk =   0.0061728
        k(  634) = (   0.5555556   1.0264005   0.0000000), wk =   0.0000000
        k(  635) = (  -0.2777778  -0.5452753   0.0000000), wk =   0.0061728
        k(  636) = (  -0.0555556  -0.0320750   0.0000000), wk =   0.0000000
        k(  637) = (  -0.2777778   0.5452753   0.0000000), wk =   0.0061728
        k(  638) = (  -0.0555556   1.0584755   0.0000000), wk =   0.0000000
        k(  639) = (   0.6111111   0.0320750   0.0000000), wk =   0.0061728
        k(  640) = (   0.8333333   0.5452753   0.0000000), wk =   0.0000000
        k(  641) = (  -0.3333333   0.5132002   0.0000000), wk =   0.0061728
        k(  642) = (  -0.1111111   1.0264005   0.0000000), wk =   0.0000000
        k(  643) = (   0.6111111  -0.0320750   0.0000000), wk =   0.0061728
        k(  644) = (   0.8333333   0.4811252   0.0000000), wk =   0.0000000
        k(  645) = (  -0.3333333  -0.5132002   0.0000000), wk =   0.0061728
        k(  646) = (  -0.1111111   0.0000000   0.0000000), wk =   0.0000000
        k(  647) = (  -0.3333333  -0.5773503   0.0000000), wk =   0.0061728
        k(  648) = (  -0.1111111  -0.0641500   0.0000000), wk =   0.0000000

                       cryst. coord.
        k(    1) = (   0.0000000   0.0000000   0.0000000), wk =   0.0061728
        k(    2) = (   0.2222222   0.3333333   0.0000000), wk =   0.0000000
        k(    3) = (   0.0000000   0.0555556   0.0000000), wk =   0.0061728
        k(    4) = (   0.2222222   0.3888889   0.0000000), wk =   0.0000000
        k(    5) = (   0.0000000   0.1111111   0.0000000), wk =   0.0061728
        k(    6) = (   0.2222222   0.4444444   0.0000000), wk =   0.0000000
        k(    7) = (   0.0000000   0.1666667   0.0000000), wk =   0.0061728
        k(    8) = (   0.2222222   0.5000000   0.0000000), wk =   0.0000000
        k(    9) = (   0.0000000   0.2222222   0.0000000), wk =   0.0061728
        k(   10) = (   0.2222222   0.5555556   0.0000000), wk =   0.0000000
        k(   11) = (   0.0000000   0.2777778   0.0000000), wk =   0.0061728
        k(   12) = (   0.2222222   0.6111111   0.0000000), wk =   0.0000000
        k(   13) = (   0.0000000   0.3333333   0.0000000), wk =   0.0061728
        k(   14) = (   0.2222222   0.6666667   0.0000000), wk =   0.0000000
        k(   15) = (   0.0000000   0.3888889   0.0000000), wk =   0.0061728
        k(   16) = (   0.2222222   0.7222222   0.0000000), wk =   0.0000000
        k(   17) = (   0.0000000   0.4444444   0.0000000), wk =   0.0061728
        k(   18) = (   0.2222222   0.7777778   0.0000000), wk =   0.0000000
        k(   19) = (   0.0000000  -0.5000000   0.0000000), wk =   0.0061728
        k(   20) = (   0.2222222  -0.1666667   0.0000000), wk =   0.0000000
        k(   21) = (   0.0555556   0.0555556   0.0000000), wk =   0.0061728
        k(   22) = (   0.2777778   0.3888889   0.0000000), wk =   0.0000000
        k(   23) = (   0.0555556   0.1111111   0.0000000), wk =   0.0061728
        k(   24) = (   0.2777778   0.4444444   0.0000000), wk =   0.0000000
        k(   25) = (   0.0555556   0.1666667   0.0000000), wk =   0.0061728
        k(   26) = (   0.2777778   0.5000000   0.0000000), wk =   0.0000000
        k(   27) = (   0.0555556   0.2222222   0.0000000), wk =   0.0061728
        k(   28) = (   0.2777778   0.5555556   0.0000000), wk =   0.0000000
        k(   29) = (   0.0555556   0.2777778   0.0000000), wk =   0.0061728
        k(   30) = (   0.2777778   0.6111111   0.0000000), wk =   0.0000000
        k(   31) = (   0.0555556   0.3333333   0.0000000), wk =   0.0061728
        k(   32) = (   0.2777778   0.6666667   0.0000000), wk =   0.0000000
        k(   33) = (   0.0555556   0.3888889   0.0000000), wk =   0.0061728
        k(   34) = (   0.2777778   0.7222222   0.0000000), wk =   0.0000000
        k(   35) = (   0.0555556   0.4444444   0.0000000), wk =   0.0061728
        k(   36) = (   0.2777778   0.7777778   0.0000000), wk =   0.0000000
        k(   37) = (   0.1111111   0.1111111   0.0000000), wk =   0.0061728
        k(   38) = (   0.3333333   0.4444444   0.0000000), wk =   0.0000000
        k(   39) = (   0.1111111   0.1666667   0.0000000), wk =   0.0061728
        k(   40) = (   0.3333333   0.5000000   0.0000000), wk =   0.0000000
        k(   41) = (   0.1111111   0.2222222   0.0000000), wk =   0.0061728
        k(   42) = (   0.3333333   0.5555556   0.0000000), wk =   0.0000000
        k(   43) = (   0.1111111   0.2777778   0.0000000), wk =   0.0061728
        k(   44) = (   0.3333333   0.6111111   0.0000000), wk =   0.0000000
        k(   45) = (   0.1111111   0.3333333   0.0000000), wk =   0.0061728
        k(   46) = (   0.3333333   0.6666667   0.0000000), wk =   0.0000000
        k(   47) = (   0.1111111   0.3888889   0.0000000), wk =   0.0061728
        k(   48) = (   0.3333333   0.7222222   0.0000000), wk =   0.0000000
        k(   49) = (   0.1111111   0.4444444   0.0000000), wk =   0.0061728
        k(   50) = (   0.3333333   0.7777778   0.0000000), wk =   0.0000000
        k(   51) = (   0.1666667   0.1666667   0.0000000), wk =   0.0061728
        k(   52) = (   0.3888889   0.5000000   0.0000000), wk =   0.0000000
        k(   53) = (   0.1666667   0.2222222   0.0000000), wk =   0.0061728
        k(   54) = (   0.3888889   0.5555556   0.0000000), wk =   0.0000000
        k(   55) = (   0.1666667   0.2777778   0.0000000), wk =   0.0061728
        k(   56) = (   0.3888889   0.6111111   0.0000000), wk =   0.0000000
        k(   57) = (   0.1666667   0.3333333   0.0000000), wk =   0.0061728
        k(   58) = (   0.3888889   0.6666667   0.0000000), wk =   0.0000000
        k(   59) = (   0.1666667   0.3888889   0.0000000), wk =   0.0061728
        k(   60) = (   0.3888889   0.7222222   0.0000000), wk =   0.0000000
        k(   61) = (   0.2222222   0.2222222   0.0000000), wk =   0.0061728
        k(   62) = (   0.4444444   0.5555556   0.0000000), wk =   0.0000000
        k(   63) = (   0.2222222   0.2777778   0.0000000), wk =   0.0061728
        k(   64) = (   0.4444444   0.6111111   0.0000000), wk =   0.0000000
        k(   65) = (   0.2222222   0.3333333   0.0000000), wk =   0.0061728
        k(   66) = (   0.4444444   0.6666667   0.0000000), wk =   0.0000000
        k(   67) = (   0.2222222   0.3888889   0.0000000), wk =   0.0061728
        k(   68) = (   0.4444444   0.7222222   0.0000000), wk =   0.0000000
        k(   69) = (   0.2777778   0.2777778   0.0000000), wk =   0.0061728
        k(   70) = (   0.5000000   0.6111111   0.0000000), wk =   0.0000000
        k(   71) = (   0.2777778   0.3333333   0.0000000), wk =   0.0061728
        k(   72) = (   0.5000000   0.6666667   0.0000000), wk =   0.0000000
        k(   73) = (   0.3333333   0.3333333   0.0000000), wk =   0.0061728
        k(   74) = (   0.5555556   0.6666667   0.0000000), wk =   0.0000000
        k(   75) = (   0.0000000  -0.0555556   0.0000000), wk =   0.0061728
        k(   76) = (   0.2222222   0.2777778   0.0000000), wk =   0.0000000
        k(   77) = (  -0.0555556   0.0000000   0.0000000), wk =   0.0061728
        k(   78) = (   0.1666667   0.3333333   0.0000000), wk =   0.0000000
        k(   79) = (   0.0555556  -0.0555556   0.0000000), wk =   0.0061728
        k(   80) = (   0.2777778   0.2777778   0.0000000), wk =   0.0000000
        k(   81) = (  -0.0555556   0.0555556   0.0000000), wk =   0.0061728
        k(   82) = (   0.1666667   0.3888889   0.0000000), wk =   0.0000000
        k(   83) = (   0.0555556  -0.0000000   0.0000000), wk =   0.0061728
        k(   84) = (   0.2777778   0.3333333   0.0000000), wk =   0.0000000
        k(   85) = (   0.0000000  -0.1111111   0.0000000), wk =   0.0061728
        k(   86) = (   0.2222222   0.2222222   0.0000000), wk =   0.0000000
        k(   87) = (  -0.1111111   0.0000000   0.0000000), wk =   0.0061728
        k(   88) = (   0.1111111   0.3333333   0.0000000), wk =   0.0000000
        k(   89) = (   0.1111111  -0.1111111   0.0000000), wk =   0.0061728
        k(   90) = (   0.3333333   0.2222222   0.0000000), wk =   0.0000000
        k(   91) = (  -0.1111111   0.1111111   0.0000000), wk =   0.0061728
        k(   92) = (   0.1111111   0.4444444   0.0000000), wk =   0.0000000
        k(   93) = (   0.1111111  -0.0000000   0.0000000), wk =   0.0061728
        k(   94) = (   0.3333333   0.3333333   0.0000000), wk =   0.0000000
        k(   95) = (   0.0000000  -0.1666667   0.0000000), wk =   0.0061728
        k(   96) = (   0.2222222   0.1666667   0.0000000), wk =   0.0000000
        k(   97) = (  -0.1666667   0.0000000   0.0000000), wk =   0.0061728
        k(   98) = (   0.0555556   0.3333333   0.0000000), wk =   0.0000000
        k(   99) = (   0.1666667  -0.1666667   0.0000000), wk =   0.0061728
        k(  100) = (   0.3888889   0.1666667   0.0000000), wk =   0.0000000
        k(  101) = (  -0.1666667   0.1666667   0.0000000), wk =   0.0061728
        k(  102) = (   0.0555556   0.5000000   0.0000000), wk =   0.0000000
        k(  103) = (   0.1666667  -0.0000000   0.0000000), wk =   0.0061728
        k(  104) = (   0.3888889   0.3333333   0.0000000), wk =   0.0000000
        k(  105) = (   0.0000000  -0.2222222   0.0000000), wk =   0.0061728
        k(  106) = (   0.2222222   0.1111111   0.0000000), wk =   0.0000000
        k(  107) = (  -0.2222222   0.0000000   0.0000000), wk =   0.0061728
        k(  108) = (   0.0000000   0.3333333   0.0000000), wk =   0.0000000
        k(  109) = (   0.2222222  -0.2222222   0.0000000), wk =   0.0061728
        k(  110) = (   0.4444444   0.1111111   0.0000000), wk =   0.0000000
        k(  111) = (  -0.2222222   0.2222222   0.0000000), wk =   0.0061728
        k(  112) = (   0.0000000   0.5555556   0.0000000), wk =   0.0000000
        k(  113) = (   0.2222222  -0.0000000   0.0000000), wk =   0.0061728
        k(  114) = (   0.4444444   0.3333333   0.0000000), wk =   0.0000000
        k(  115) = (   0.0000000  -0.2777778   0.0000000), wk =   0.0061728
        k(  116) = (   0.2222222   0.0555556   0.0000000), wk =   0.0000000
        k(  117) = (  -0.2777778   0.0000000   0.0000000), wk =   0.0061728
        k(  118) = (  -0.0555556   0.3333333   0.0000000), wk =   0.0000000
        k(  119) = (   0.2777778  -0.2777778   0.0000000), wk =   0.0061728
        k(  120) = (   0.5000000   0.0555556   0.0000000), wk =   0.0000000
        k(  121) = (  -0.2777778   0.2777778   0.0000000), wk =   0.0061728
        k(  122) = (  -0.0555556   0.6111111   0.0000000), wk =   0.0000000
        k(  123) = (   0.2777778  -0.0000000   0.0000000), wk =   0.0061728
        k(  124) = (   0.5000000   0.3333333   0.0000000), wk =   0.0000000
        k(  125) = (   0.0000000  -0.3333333   0.0000000), wk =   0.0061728
        k(  126) = (   0.2222222   0.0000000   0.0000000), wk =   0.0000000
        k(  127) = (  -0.3333333   0.0000000   0.0000000), wk =   0.0061728
        k(  128) = (  -0.1111111   0.3333333   0.0000000), wk =   0.0000000
        k(  129) = (   0.3333333  -0.3333333   0.0000000), wk =   0.0061728
        k(  130) = (   0.5555556   0.0000000   0.0000000), wk =   0.0000000
        k(  131) = (  -0.3333333   0.3333333   0.0000000), wk =   0.0061728
        k(  132) = (  -0.1111111   0.6666667   0.0000000), wk =   0.0000000
        k(  133) = (   0.3333333  -0.0000000   0.0000000), wk =   0.0061728
        k(  134) = (   0.5555556   0.3333333   0.0000000), wk =   0.0000000
        k(  135) = (   0.0000000  -0.3888889   0.0000000), wk =   0.0061728
        k(  136) = (   0.2222222  -0.0555556   0.0000000), wk =   0.0000000
        k(  137) = (  -0.3888889  -0.0000000   0.0000000), wk =   0.0061728
        k(  138) = (  -0.1666667   0.3333333   0.0000000), wk =   0.0000000
        k(  139) = (   0.3888889  -0.3888889   0.0000000), wk =   0.0061728
        k(  140) = (   0.6111111  -0.0555556   0.0000000), wk =   0.0000000
        k(  141) = (  -0.3888889   0.3888889   0.0000000), wk =   0.0061728
        k(  142) = (  -0.1666667   0.7222222   0.0000000), wk =   0.0000000
        k(  143) = (   0.3888889   0.0000000   0.0000000), wk =   0.0061728
        k(  144) = (   0.6111111   0.3333333   0.0000000), wk =   0.0000000
        k(  145) = (   0.0000000  -0.4444444   0.0000000), wk =   0.0061728
        k(  146) = (   0.2222222  -0.1111111   0.0000000), wk =   0.0000000
        k(  147) = (  -0.4444444   0.0000000   0.0000000), wk =   0.0061728
        k(  148) = (  -0.2222222   0.3333333   0.0000000), wk =   0.0000000
        k(  149) = (   0.4444444  -0.4444444   0.0000000), wk =   0.0061728
        k(  150) = (   0.6666667  -0.1111111   0.0000000), wk =   0.0000000
        k(  151) = (  -0.4444444   0.4444444   0.0000000), wk =   0.0061728
        k(  152) = (  -0.2222222   0.7777778   0.0000000), wk =   0.0000000
        k(  153) = (   0.4444444  -0.0000000   0.0000000), wk =   0.0061728
        k(  154) = (   0.6666667   0.3333333   0.0000000), wk =   0.0000000
        k(  155) = (   0.5000000   0.0000000   0.0000000), wk =   0.0061728
        k(  156) = (   0.7222222   0.3333333   0.0000000), wk =   0.0000000
        k(  157) = (  -0.5000000   0.5000000   0.0000000), wk =   0.0061728
        k(  158) = (  -0.2777778   0.8333333   0.0000000), wk =   0.0000000
        k(  159) = (   0.0555556  -0.1111111   0.0000000), wk =   0.0061728
        k(  160) = (   0.2777778   0.2222222   0.0000000), wk =   0.0000000
        k(  161) = (  -0.1111111   0.0555556   0.0000000), wk =   0.0061728
        k(  162) = (   0.1111111   0.3888889   0.0000000), wk =   0.0000000
        k(  163) = (  -0.0555556  -0.0555556   0.0000000), wk =   0.0061728
        k(  164) = (   0.1666667   0.2777778   0.0000000), wk =   0.0000000
        k(  165) = (  -0.0555556   0.1111111   0.0000000), wk =   0.0061728
        k(  166) = (   0.1666667   0.4444444   0.0000000), wk =   0.0000000
        k(  167) = (   0.1111111  -0.0555556   0.0000000), wk =   0.0061728
        k(  168) = (   0.3333333   0.2777778   0.0000000), wk =   0.0000000
        k(  169) = (   0.0555556  -0.1666667   0.0000000), wk =   0.0061728
        k(  170) = (   0.2777778   0.1666667   0.0000000), wk =   0.0000000
        k(  171) = (  -0.1666667   0.0555556   0.0000000), wk =   0.0061728
        k(  172) = (   0.0555556   0.3888889   0.0000000), wk =   0.0000000
        k(  173) = (   0.1111111  -0.1666667   0.0000000), wk =   0.0061728
        k(  174) = (   0.3333333   0.1666667   0.0000000), wk =   0.0000000
        k(  175) = (  -0.1666667   0.1111111   0.0000000), wk =   0.0061728
        k(  176) = (   0.0555556   0.4444444   0.0000000), wk =   0.0000000
        k(  177) = (   0.1111111   0.0555556   0.0000000), wk =   0.0061728
        k(  178) = (   0.3333333   0.3888889   0.0000000), wk =   0.0000000
        k(  179) = (  -0.0555556  -0.1111111   0.0000000), wk =   0.0061728
        k(  180) = (   0.1666667   0.2222222   0.0000000), wk =   0.0000000
        k(  181) = (  -0.0555556   0.1666667   0.0000000), wk =   0.0061728
        k(  182) = (   0.1666667   0.5000000   0.0000000), wk =   0.0000000
        k(  183) = (   0.1666667  -0.0555556   0.0000000), wk =   0.0061728
        k(  184) = (   0.3888889   0.2777778   0.0000000), wk =   0.0000000
        k(  185) = (  -0.1111111   0.1666667   0.0000000), wk =   0.0061728
        k(  186) = (   0.1111111   0.5000000   0.0000000), wk =   0.0000000
        k(  187) = (   0.1666667  -0.1111111   0.0000000), wk =   0.0061728
        k(  188) = (   0.3888889   0.2222222   0.0000000), wk =   0.0000000
        k(  189) = (  -0.1111111  -0.0555556   0.0000000), wk =   0.0061728
        k(  190) = (   0.1111111   0.2777778   0.0000000), wk =   0.0000000
        k(  191) = (   0.0555556  -0.2222222   0.0000000), wk =   0.0061728
        k(  192) = (   0.2777778   0.1111111   0.0000000), wk =   0.0000000
        k(  193) = (  -0.2222222   0.0555556   0.0000000), wk =   0.0061728
        k(  194) = (   0.0000000   0.3888889   0.0000000), wk =   0.0000000
        k(  195) = (   0.1666667  -0.2222222   0.0000000), wk =   0.0061728
        k(  196) = (   0.3888889   0.1111111   0.0000000), wk =   0.0000000
        k(  197) = (  -0.2222222   0.1666667   0.0000000), wk =   0.0061728
        k(  198) = (   0.0000000   0.5000000   0.0000000), wk =   0.0000000
        k(  199) = (   0.1666667   0.0555556   0.0000000), wk =   0.0061728
        k(  200) = (   0.3888889   0.3888889   0.0000000), wk =   0.0000000
        k(  201) = (  -0.0555556  -0.1666667   0.0000000), wk =   0.0061728
        k(  202) = (   0.1666667   0.1666667   0.0000000), wk =   0.0000000
        k(  203) = (  -0.0555556   0.2222222   0.0000000), wk =   0.0061728
        k(  204) = (   0.1666667   0.5555556   0.0000000), wk =   0.0000000
        k(  205) = (   0.2222222  -0.0555556   0.0000000), wk =   0.0061728
        k(  206) = (   0.4444444   0.2777778   0.0000000), wk =   0.0000000
        k(  207) = (  -0.1666667   0.2222222   0.0000000), wk =   0.0061728
        k(  208) = (   0.0555556   0.5555556   0.0000000), wk =   0.0000000
        k(  209) = (   0.2222222  -0.1666667   0.0000000), wk =   0.0061728
        k(  210) = (   0.4444444   0.1666667   0.0000000), wk =   0.0000000
        k(  211) = (  -0.1666667  -0.0555556   0.0000000), wk =   0.0061728
        k(  212) = (   0.0555556   0.2777778   0.0000000), wk =   0.0000000
        k(  213) = (   0.0555556  -0.2777778   0.0000000), wk =   0.0061728
        k(  214) = (   0.2777778   0.0555556   0.0000000), wk =   0.0000000
        k(  215) = (  -0.2777778   0.0555556   0.0000000), wk =   0.0061728
        k(  216) = (  -0.0555556   0.3888889   0.0000000), wk =   0.0000000
        k(  217) = (   0.2222222  -0.2777778   0.0000000), wk =   0.0061728
        k(  218) = (   0.4444444   0.0555556   0.0000000), wk =   0.0000000
        k(  219) = (  -0.2777778   0.2222222   0.0000000), wk =   0.0061728
        k(  220) = (  -0.0555556   0.5555556   0.0000000), wk =   0.0000000
        k(  221) = (   0.2222222   0.0555556   0.0000000), wk =   0.0061728
        k(  222) = (   0.4444444   0.3888889   0.0000000), wk =   0.0000000
        k(  223) = (  -0.0555556  -0.2222222   0.0000000), wk =   0.0061728
[...]
        k(  614) = (  -0.1666667   0.9444444   0.0000000), wk =   0.0000000
        k(  615) = (   0.2777778  -0.5555556   0.0000000), wk =   0.0061728
        k(  616) = (   0.5000000  -0.2222222   0.0000000), wk =   0.0000000
        k(  617) = (  -0.5555556   0.2777778   0.0000000), wk =   0.0061728
        k(  618) = (  -0.3333333   0.6111111   0.0000000), wk =   0.0000000
        k(  619) = (  -0.2777778  -0.2777778   0.0000000), wk =   0.0061728
        k(  620) = (  -0.0555556   0.0555556   0.0000000), wk =   0.0000000
        k(  621) = (  -0.2777778   0.5555556   0.0000000), wk =   0.0061728
        k(  622) = (  -0.0555556   0.8888889   0.0000000), wk =   0.0000000
        k(  623) = (   0.5555556  -0.2777778   0.0000000), wk =   0.0061728
        k(  624) = (   0.7777778   0.0555556   0.0000000), wk =   0.0000000
        k(  625) = (   0.2777778  -0.6111111   0.0000000), wk =   0.0061728
        k(  626) = (   0.5000000  -0.2777778   0.0000000), wk =   0.0000000
        k(  627) = (  -0.6111111   0.2777778   0.0000000), wk =   0.0061728
        k(  628) = (  -0.3888889   0.6111111   0.0000000), wk =   0.0000000
        k(  629) = (   0.3333333  -0.6111111   0.0000000), wk =   0.0061728
        k(  630) = (   0.5555556  -0.2777778   0.0000000), wk =   0.0000000
        k(  631) = (  -0.6111111   0.3333333   0.0000000), wk =   0.0061728
        k(  632) = (  -0.3888889   0.6666667   0.0000000), wk =   0.0000000
        k(  633) = (   0.3333333   0.2777778   0.0000000), wk =   0.0061728
        k(  634) = (   0.5555556   0.6111111   0.0000000), wk =   0.0000000
        k(  635) = (  -0.2777778  -0.3333333   0.0000000), wk =   0.0061728
        k(  636) = (  -0.0555556  -0.0000000   0.0000000), wk =   0.0000000
        k(  637) = (  -0.2777778   0.6111111   0.0000000), wk =   0.0061728
        k(  638) = (  -0.0555556   0.9444444   0.0000000), wk =   0.0000000
        k(  639) = (   0.6111111  -0.2777778   0.0000000), wk =   0.0061728
        k(  640) = (   0.8333333   0.0555556   0.0000000), wk =   0.0000000
        k(  641) = (  -0.3333333   0.6111111   0.0000000), wk =   0.0061728
        k(  642) = (  -0.1111111   0.9444444   0.0000000), wk =   0.0000000
        k(  643) = (   0.6111111  -0.3333333   0.0000000), wk =   0.0061728
        k(  644) = (   0.8333333   0.0000000   0.0000000), wk =   0.0000000
        k(  645) = (  -0.3333333  -0.2777778   0.0000000), wk =   0.0061728
        k(  646) = (  -0.1111111   0.0555556   0.0000000), wk =   0.0000000
        k(  647) = (  -0.3333333  -0.3333333   0.0000000), wk =   0.0061728
        k(  648) = (  -0.1111111   0.0000000   0.0000000), wk =   0.0000000

     PseudoPot. # 1 for C  read from file:
     ../pseudo/c_pbe_v1.2.uspp.F.UPF
     MD5 check sum: d1aef80898a10debaa0f26306b886e00
     Pseudo is Ultrasoft + core correction, Zval =  4.0
     Generated by new atomic code, or converted to UPF format
     Using radial grid of  721 points,  4 beta functions with: 
                l(1) =   0
                l(2) =   0
                l(3) =   1
                l(4) =   1
     Q(r) pseudized with  8 coefficients,  rinner =    1.100   1.100   1.100


     PseudoPot. # 2 for F  read from file:
     ../pseudo/f_pbe_v1.4.uspp.F.UPF
     MD5 check sum: 4c38b6a325caf53ec0e86aed9459de46
     Pseudo is Ultrasoft, Zval =  7.0
     Generated by new atomic code, or converted to UPF format
     Using radial grid of  799 points,  4 beta functions with: 
                l(1) =   0
                l(2) =   0
                l(3) =   1
                l(4) =   1
     Q(r) pseudized with  8 coefficients,  rinner =    0.950   0.950   0.950


     point group C_1 (1)    
     there are  1 classes
     the character table:

       E    
A      1.00

     the symmetry operations in each class and the name of the first element:

     E        1
          identity                                               


     Atomic displacements:
     There are   12 irreducible representations

     Representation     1      1 modes -  To be done
     Irreps are as follows:

                     mode #   1
                     (  -0.00000  -0.00000   ) 
                     (  -0.00000  -0.00000   ) 
                     (  -0.00000  -0.00000   ) 
                     (  -0.00000  -0.00000   ) 
                     (  -0.00000  -0.00000   ) 
                     (  -0.00000  -0.00000   ) 
                     (  -0.00000  -0.00000   ) 
                     (  -0.00000  -0.00000   ) 
                     (  -0.00000  -0.00000   ) 
                     (  -0.45352  -0.00000   ) 
                     (  -0.51086   0.72802   ) 
                     (  -0.00393  -0.05758   ) 

     Representation     2      1 modes -  Not done in this run
     Irreps are as follows:

                     mode #   2
                     (  -0.00000   0.00000   ) 
                     (  -0.00000   0.00000   ) 
                     (  -0.00000   0.00000   ) 
                     (  -0.00000   0.00000   ) 
                     (  -0.00000   0.00000   ) 
                     (  -0.00000   0.00000   ) 
                     (  -0.49649  -0.00000   ) 
                     (  -0.50290   0.70663   ) 
                     (   0.02371   0.02622   ) 
                     (  -0.00000   0.00000   ) 
                     (  -0.00000   0.00000   ) 
                     (  -0.00000   0.00000   ) 

     Representation     3      1 modes -  Not done in this run
     Irreps are as follows:

                     mode #   3
                     (  -0.00000  -0.00000   ) 
                     (  -0.00000  -0.00000   ) 
                     (  -0.00000  -0.00000   ) 
                     (  -0.92977  -0.00000   ) 
                     (   0.33422  -0.08316   ) 
                     (  -0.00153   0.13000   ) 
                     (  -0.00000  -0.00000   ) 
                     (  -0.00000  -0.00000   ) 
                     (  -0.00000  -0.00000   ) 
                     (  -0.00000  -0.00000   ) 
                     (  -0.00000  -0.00000   ) 
                     (  -0.00000  -0.00000   ) 

     Representation     4      1 modes -  Not done in this run
     Irreps are as follows:

                     mode #   4
                     (  -0.05599  -0.00000   ) 
                     (   0.02531   0.00880   ) 
                     (   0.99758   0.03134   ) 
                     (  -0.00000   0.00000   ) 
                     (  -0.00000   0.00000   ) 
                     (  -0.00000   0.00000   ) 
                     (  -0.00000   0.00000   ) 
                     (  -0.00000   0.00000   ) 
                     (  -0.00000   0.00000   ) 
                     (  -0.00000   0.00000   ) 
                     (  -0.00000   0.00000   ) 
                     (  -0.00000   0.00000   ) 

     Representation     5      1 modes -  Not done in this run
     Irreps are as follows:

                     mode #   5
                     (  -0.00000  -0.00000   ) 
                     (  -0.00000  -0.00000   ) 
                     (  -0.00000  -0.00000   ) 
                     (  -0.00000  -0.00000   ) 
                     (  -0.00000  -0.00000   ) 
                     (  -0.00000  -0.00000   ) 
                     (  -0.00000  -0.00000   ) 
                     (  -0.00000  -0.00000   ) 
                     (  -0.00000  -0.00000   ) 
                     (  -0.05727  -0.00000   ) 
                     (  -0.04387  -0.00132   ) 
                     (  -0.50789   0.85839   ) 

     Representation     6      1 modes -  Not done in this run
     Irreps are as follows:

                     mode #   6
                     (  -0.00000  -0.00000   ) 
                     (  -0.00000  -0.00000   ) 
                     (  -0.00000  -0.00000   ) 
                     (  -0.00000  -0.00000   ) 
                     (  -0.00000  -0.00000   ) 
                     (  -0.00000  -0.00000   ) 
                     (  -0.10049  -0.00000   ) 
                     (   0.07371  -0.04864   ) 
                     (  -0.17072   0.97619   ) 
                     (  -0.00000  -0.00000   ) 
                     (  -0.00000  -0.00000   ) 
                     (  -0.00000  -0.00000   ) 

     Representation     7      1 modes -  Not done in this run
     Irreps are as follows:

                     mode #   7
                     (  -0.00000  -0.00000   ) 
                     (  -0.00000  -0.00000   ) 
                     (  -0.00000  -0.00000   ) 
                     (  -0.11907  -0.00000   ) 
                     (   0.04839  -0.02358   ) 
                     (  -0.01798  -0.99126   ) 
                     (  -0.00000  -0.00000   ) 
                     (  -0.00000  -0.00000   ) 
                     (  -0.00000  -0.00000   ) 
                     (  -0.00000  -0.00000   ) 
                     (  -0.00000  -0.00000   ) 
                     (  -0.00000  -0.00000   ) 

     Representation     8      1 modes -  Not done in this run
     Irreps are as follows:

                     mode #   8
                     (  -0.14280   0.00000   ) 
                     (   0.29456   0.94436   ) 
                     (  -0.02312  -0.02209   ) 
                     (  -0.00000  -0.00000   ) 
                     (  -0.00000  -0.00000   ) 
                     (  -0.00000  -0.00000   ) 
                     (  -0.00000  -0.00000   ) 
                     (  -0.00000  -0.00000   ) 
                     (  -0.00000  -0.00000   ) 
                     (  -0.00000  -0.00000   ) 
                     (  -0.00000  -0.00000   ) 
                     (  -0.00000  -0.00000   ) 

     Representation     9      1 modes -  Not done in this run
     Irreps are as follows:

                     mode #   9
                     (  -0.00000  -0.00000   ) 
                     (  -0.00000  -0.00000   ) 
                     (  -0.00000  -0.00000   ) 
                     (  -0.00000  -0.00000   ) 
                     (  -0.00000  -0.00000   ) 
                     (  -0.00000  -0.00000   ) 
                     (  -0.86220  -0.00000   ) 
                     (   0.28100  -0.40124   ) 
                     (   0.00625  -0.12888   ) 
                     (  -0.00000  -0.00000   ) 
                     (  -0.00000  -0.00000   ) 
                     (  -0.00000  -0.00000   ) 

     Representation    10      1 modes -  Not done in this run
     Irreps are as follows:

                     mode #  10
                     (  -0.00000  -0.00000   ) 
                     (  -0.00000  -0.00000   ) 
                     (  -0.00000  -0.00000   ) 
                     (  -0.00000  -0.00000   ) 
                     (  -0.00000  -0.00000   ) 
                     (  -0.00000  -0.00000   ) 
                     (  -0.00000  -0.00000   ) 
                     (  -0.00000  -0.00000   ) 
                     (  -0.00000  -0.00000   ) 
                     (  -0.88940  -0.00000   ) 
                     (   0.26332  -0.37114   ) 
                     (   0.03471  -0.02592   ) 

     Representation    11      1 modes -  Not done in this run
     Irreps are as follows:

                     mode #  11
                     (  -0.98817  -0.00000   ) 
                     (  -0.04400  -0.13697   ) 
                     (  -0.05318   0.00142   ) 
                     (  -0.00000  -0.00000   ) 
                     (  -0.00000  -0.00000   ) 
                     (  -0.00000  -0.00000   ) 
                     (  -0.00000  -0.00000   ) 
                     (  -0.00000  -0.00000   ) 
                     (  -0.00000  -0.00000   ) 
                     (  -0.00000  -0.00000   ) 
                     (  -0.00000  -0.00000   ) 
                     (  -0.00000  -0.00000   ) 

     Representation    12      1 modes -  Not done in this run
     Irreps are as follows:

                     mode #  12
                     (  -0.00000  -0.00000   ) 
                     (  -0.00000  -0.00000   ) 
                     (  -0.00000  -0.00000   ) 
                     (  -0.34835  -0.00000   ) 
                     (  -0.90861   0.23002   ) 
                     (   0.01023  -0.00817   ) 
                     (  -0.00000  -0.00000   ) 
                     (  -0.00000  -0.00000   ) 
                     (  -0.00000  -0.00000   ) 
                     (  -0.00000  -0.00000   ) 
                     (  -0.00000  -0.00000   ) 
                     (  -0.00000  -0.00000   ) 

     Compute atoms:     4,



     Alpha used in Ewald sum =   2.8000

     negative rho (up, down):  5.457E-06 0.000E+00
     PHONON       :      2h14m CPU      4h 9m WALL



     Representation #   1 mode #   1

     Self-consistent Calculation

      iter #   1 total cpu time : 17209.0 secs   av.it.:   6.9
      thresh= 1.000E-02 alpha_mix =  0.700 |ddv_scf|^2 =  1.746E-07

      iter #   2 total cpu time : 21499.7 secs   av.it.:  14.0
      thresh= 4.179E-05 alpha_mix =  0.700 |ddv_scf|^2 =  2.334E-08

      iter #   3 total cpu time : 25540.9 secs   av.it.:  13.9
      thresh= 1.528E-05 alpha_mix =  0.700 |ddv_scf|^2 =  4.387E-09

      iter #   4 total cpu time : 29497.9 secs   av.it.:  13.9
      thresh= 6.624E-06 alpha_mix =  0.700 |ddv_scf|^2 =  1.404E-10

      iter #   5 total cpu time : 33742.9 secs   av.it.:  14.3
      thresh= 1.185E-06 alpha_mix =  0.700 |ddv_scf|^2 =  1.360E-11

      iter #   6 total cpu time : 38282.5 secs   av.it.:  13.9
      thresh= 3.687E-07 alpha_mix =  0.700 |ddv_scf|^2 =  3.518E-13

     End of self-consistent calculation

     Convergence has been achieved 

     Not diagonalizing because representation    2 is not done

     init_run     :      2.30s CPU      2.64s WALL (       1 calls)
     electrons    :   4762.54s CPU   8284.17s WALL (       1 calls)

     Called by init_run:
     wfcinit      :      0.00s CPU      0.01s WALL (       1 calls)
     wfcinit:atom :      1.56s CPU      2.32s WALL (     648 calls)
     wfcinit:wfcr :    157.03s CPU    241.08s WALL (     648 calls)
     potinit      :      0.25s CPU      0.28s WALL (       1 calls)
     hinit0       :      0.44s CPU      0.45s WALL (       1 calls)

     Called by electrons:
     c_bands      :   4762.48s CPU   8284.04s WALL (       1 calls)
     v_of_rho     :      0.42s CPU      0.47s WALL (       2 calls)
     v_h          :      0.03s CPU      0.03s WALL (       2 calls)
     v_xc         :      0.51s CPU      0.56s WALL (       3 calls)
     newd         :      0.44s CPU      0.97s WALL (       2 calls)

     Called by c_bands:
     init_us_2    :     13.13s CPU     18.19s WALL (    4536 calls)
     init_us_2:cp :     13.10s CPU     18.19s WALL (    4536 calls)
     cegterg      :   4553.48s CPU   7938.08s WALL (    1272 calls)

     Called by sum_band:

     Called by *egterg:
     cdiaghg      :    388.95s CPU    836.73s WALL (   18498 calls)
     cegterg:over :   1114.67s CPU   2092.88s WALL (   17850 calls)
     cegterg:upda :    110.21s CPU    177.37s WALL (   17850 calls)
     cegterg:last :     68.74s CPU     87.11s WALL (    3208 calls)
     h_psi        :   7469.74s CPU  12443.51s WALL (   55474 calls)
     s_psi        :    376.44s CPU    758.04s WALL (   93122 calls)
     g_psi        :      4.87s CPU      6.52s WALL (   17850 calls)

     Called by h_psi:
     h_psi:calbec :   1835.26s CPU   4383.75s WALL (   55474 calls)
     vloc_psi     :   5393.70s CPU   7551.42s WALL (   55474 calls)
     add_vuspsi   :    224.25s CPU    474.12s WALL (   55474 calls)

     General routines
     calbec       :   3953.05s CPU   8550.01s WALL (  104786 calls)
     fft          :      3.46s CPU      4.97s WALL (     154 calls)
     ffts         :     19.86s CPU     30.59s WALL (     348 calls)
     fftw         :   7749.87s CPU  11923.76s WALL (  993572 calls)
     davcio       :     31.58s CPU    230.59s WALL (   13065 calls)

     Parallel routines

     PHONON       :      5h42m CPU     10h40m WALL

     INITIALIZATION: 
     phq_setup    :      0.27s CPU      0.37s WALL (       1 calls)
     phq_init     :   3278.97s CPU   6621.64s WALL (       1 calls)

     phq_init     :   3278.97s CPU   6621.64s WALL (       1 calls)
     set_drhoc    :      1.41s CPU      1.41s WALL (       3 calls)
     init_vloc    :      0.40s CPU      0.40s WALL (       2 calls)
     init_us_1    :      0.12s CPU      0.12s WALL (       2 calls)
     init_us_2    :     13.13s CPU     18.19s WALL (    4536 calls)
     newd         :      0.44s CPU      0.97s WALL (       2 calls)
     dvanqq       :      3.97s CPU      4.01s WALL (       1 calls)
     drho         :   3056.05s CPU   6184.76s WALL (       1 calls)

     DYNAMICAL MATRIX:
     dynmat0      :    116.27s CPU    232.19s WALL (       1 calls)
     phqscf       :  12530.06s CPU  23484.87s WALL (       1 calls)
     dynmatrix    :      0.04s CPU      2.62s WALL (       1 calls)

     phqscf       :  12530.06s CPU  23484.87s WALL (       1 calls)
     solve_linter :  12445.74s CPU  23312.96s WALL (       1 calls)
     drhodv       :     84.32s CPU    171.79s WALL (       1 calls)

     dynmat0      :    116.27s CPU    232.19s WALL (       1 calls)
     dynmat_us    :    115.03s CPU    230.91s WALL (       1 calls)
     d2ionq       :      0.14s CPU      0.15s WALL (       1 calls)
     dynmatcc     :      1.10s CPU      1.11s WALL (       1 calls)

     dynmat_us    :    115.03s CPU    230.91s WALL (       1 calls)
     addusdynmat  :      0.00s CPU      0.00s WALL (       1 calls)

     phqscf       :  12530.06s CPU  23484.87s WALL (       1 calls)
     solve_linter :  12445.74s CPU  23312.96s WALL (       1 calls)

     solve_linter :  12445.74s CPU  23312.96s WALL (       1 calls)
     dvqpsi_us    :     59.85s CPU     86.15s WALL (     324 calls)
     sth_kernel   :  12379.39s CPU  23206.62s WALL (       6 calls)
     apply_dpot_b :    125.60s CPU    135.84s WALL (    1620 calls)
     ortho        :    239.46s CPU    461.68s WALL (    1944 calls)
     cgsolve      :  11636.66s CPU  21885.97s WALL (    1944 calls)
     incdrhoscf   :    276.97s CPU    406.54s WALL (    1944 calls)
     addusddens   :      7.05s CPU     15.31s WALL (      18 calls)
     dv_of_drho   :      0.65s CPU      0.97s WALL (       6 calls)
     mix_pot      :      0.17s CPU      2.77s WALL (       6 calls)
     newdq        :      0.97s CPU      1.04s WALL (       6 calls)
     adddvscf     :     25.92s CPU     64.38s WALL (    1620 calls)
     drhodvus     :      0.02s CPU      0.58s WALL (       1 calls)

     dvqpsi_us    :     59.85s CPU     86.15s WALL (     324 calls)
     dvqpsi_us_on :      6.61s CPU     16.50s WALL (     324 calls)

     cgsolve      :  11636.66s CPU  21885.97s WALL (    1944 calls)
     ch_psi       :   8277.43s CPU  15044.81s WALL (   35704 calls)

     ch_psi       :   8277.43s CPU  15044.81s WALL (   35704 calls)
     h_psi        :   7469.74s CPU  12443.51s WALL (   55474 calls)
     last         :   2891.11s CPU   5851.40s WALL (   35704 calls)

     h_psi        :   7469.74s CPU  12443.51s WALL (   55474 calls)
     add_vuspsi   :    224.25s CPU    474.12s WALL (   55474 calls)

     incdrhoscf   :    276.97s CPU    406.54s WALL (    1944 calls)
     addusdbec    :    261.23s CPU    576.12s WALL (    5832 calls)

     drhodvus     :      0.02s CPU      0.58s WALL (       1 calls)

      General routines
     calbec       :   3953.05s CPU   8550.01s WALL (  104786 calls)
     fft          :      3.46s CPU      4.97s WALL (     154 calls)
     ffts         :     19.86s CPU     30.59s WALL (     348 calls)
     fftw         :   7749.87s CPU  11923.76s WALL (  993572 calls)
     davcio       :     31.58s CPU    230.59s WALL (   13065 calls)
     write_rec    :      0.01s CPU      0.66s WALL (       7 calls)


     PHONON       :      5h42m CPU     10h40m WALL


   This run was terminated on:   4: 1:31   3Mar2024            

=------------------------------------------------------------------------------=
   JOB DONE.
=------------------------------------------------------------------------------=
