
     Program PHONON v.7.1 starts on  2Mar2024 at 17:20:34 

     This program is part of the open-source Quantum ESPRESSO suite
     for quantum simulation of materials; please cite
         "P. Giannozzi et al., J. Phys.:Condens. Matter 21 395502 (2009);
         "P. Giannozzi et al., J. Phys.:Condens. Matter 29 465901 (2017);
         "P. Giannozzi et al., J. Chem. Phys. 152 154105 (2020);
          URL http://www.quantum-espresso.org", 
     in publications or presentations arising from this work. More details at
     http://www.quantum-espresso.org/quote

     Parallel version (MPI), running on     8 processors

     MPI processes distributed on     1 nodes
     R & G space division:  proc/nbgrp/npool/nimage =       8
     350447 MiB available memory on the printing compute node when the environment starts

     Reading input from input.10.1
      Title line not specified: using 'default'.

     Reading xml data from directory:

     /home/ext_chineason_graduate_utm_my/fgc/tmp/10.1/fgc.save/

     IMPORTANT: XC functional enforced from input :
     Exchange-correlation= PBE
                           (   1   4   3   4   0   0   0)
     Any further DFT definition will be discarded
     Please, verify this is what you really want


     Parallelization info
     --------------------
     sticks:   dense  smooth     PW     G-vecs:    dense   smooth      PW
     Min         416     416    114               138498   138498   19368
     Max         417     417    115               138521   138521   19383
     Sum        3331    3331    913              1108055  1108055  154987

     Using Slab Decomposition

 ----2D----2D----2D----2D----2D----2D----2D----2D----2D----2D----2D----2D
  The code is running with the 2D cutoff
  Please refer to:
  Sohier, T., Calandra, M., & Mauri, F. (2017), 
  Density functional perturbation theory for gated two-dimensional heterostructures:
  Theoretical developments and application to flexural phonons in graphene.
  Physical Review B, 96(7), 75448. https://doi.org/10.1103/PhysRevB.96.075448
 ----2D----2D----2D----2D----2D----2D----2D----2D----2D----2D----2D----2D

     negative rho (up, down):  5.457E-06 0.000E+00
     Reading collected, re-writing distributed wavefunctions
        1 /  12 q-points for this run, from 10 to 10:
       N       xq(1)         xq(2)         xq(3) 
       1   0.000000000   0.000000000   0.000000000
       2   0.000000000   0.128300060   0.000000000
       3   0.000000000   0.256600120   0.000000000
       4   0.000000000   0.384900179   0.000000000
       5   0.000000000   0.513200239   0.000000000
       6   0.111111111   0.192450090   0.000000000
       7   0.111111111   0.320750150   0.000000000
       8   0.111111111   0.449050209   0.000000000
       9   0.111111111   0.577350269   0.000000000
      10   0.222222222   0.384900179   0.000000000
      11   0.222222222   0.513200239   0.000000000
      12   0.333333333   0.577350269   0.000000000


     Calculation of q =    0.2222222   0.3849002   0.0000000
     Subspace diagonalization in iterative solution of the eigenvalue problem:
     a serial algorithm will be used


     Parallelization info
     --------------------
     sticks:   dense  smooth     PW     G-vecs:    dense   smooth      PW
     Min         416     416    119               138498   138498   20835
     Max         417     417    120               138521   138521   20854
     Sum        3331    3331    955              1108055  1108055  166759

     Using Slab Decomposition


     Title: 
     default                                                                    


     bravais-lattice index     =            4
     lattice parameter (alat)  =       4.9233  a.u.
     unit-cell volume          =     733.8532 (a.u.)^3
     number of atoms/cell      =            4
     number of atomic types    =            2
     number of electrons       =        22.00
     number of Kohn-Sham states=           15
     kinetic-energy cutoff     =     500.0000  Ry
     charge density cutoff     =    2000.0000  Ry
     Exchange-correlation= PBE
                           (   1   4   3   4   0   0   0)

     celldm(1)=   4.923251  celldm(2)=   0.000000  celldm(3)=   7.101051
     celldm(4)=   0.000000  celldm(5)=   0.000000  celldm(6)=   0.000000

     crystal axes: (cart. coord. in units of alat)
               a(1) = (   1.000000   0.000000   0.000000 )  
               a(2) = (  -0.500000   0.866025   0.000000 )  
               a(3) = (   0.000000   0.000000   7.101051 )  

     reciprocal axes: (cart. coord. in units 2 pi/alat)
               b(1) = (  1.000000  0.577350 -0.000000 )  
               b(2) = (  0.000000  1.154701  0.000000 )  
               b(3) = (  0.000000 -0.000000  0.140824 )  


     PseudoPot. # 1 for C  read from file:
     ../pseudo/c_pbe_v1.2.uspp.F.UPF
     MD5 check sum: d1aef80898a10debaa0f26306b886e00
     Pseudo is Ultrasoft + core correction, Zval =  4.0
     Generated by new atomic code, or converted to UPF format
     Using radial grid of  721 points,  4 beta functions with: 
                l(1) =   0
                l(2) =   0
                l(3) =   1
                l(4) =   1
     Q(r) pseudized with  8 coefficients,  rinner =    1.100   1.100   1.100


     PseudoPot. # 2 for F  read from file:
     ../pseudo/f_pbe_v1.4.uspp.F.UPF
     MD5 check sum: 4c38b6a325caf53ec0e86aed9459de46
     Pseudo is Ultrasoft, Zval =  7.0
     Generated by new atomic code, or converted to UPF format
     Using radial grid of  799 points,  4 beta functions with: 
                l(1) =   0
                l(2) =   0
                l(3) =   1
                l(4) =   1
     Q(r) pseudized with  8 coefficients,  rinner =    0.950   0.950   0.950


     atomic species   valence    mass     pseudopotential
        C              4.00    12.01070     C ( 1.00)
        F              7.00    18.99840     F ( 1.00)

     12 Sym. Ops., with inversion, found


                                    s                        frac. trans.

      isym =  1     identity                                     

 cryst.   s( 1) = (     1          0          0      )
                  (     0          1          0      )
                  (     0          0          1      )

 cart.    s( 1) = (  1.0000000  0.0000000  0.0000000 )
                  (  0.0000000  1.0000000  0.0000000 )
                  (  0.0000000  0.0000000  1.0000000 )


      isym =  2     180 deg rotation - cryst. axis [1,1,0]       

 cryst.   s( 2) = (     0          1          0      )    f =(  0.5000000 )
                  (     1          0          0      )       (  0.5000000 )
                  (     0          0         -1      )       (  0.0000000 )

 cart.    s( 2) = ( -0.5000000  0.8660254  0.0000000 )    f =(  0.2500000 )
                  (  0.8660254  0.5000000  0.0000000 )       (  0.4330127 )
                  (  0.0000000  0.0000000 -1.0000000 )       (  0.0000000 )


      isym =  3     120 deg rotation - cryst. axis [0,0,1]       

 cryst.   s( 3) = (     0          1          0      )    f =( -0.5000000 )
                  (    -1         -1          0      )       ( -0.5000000 )
                  (     0          0          1      )       (  0.0000000 )

 cart.    s( 3) = ( -0.5000000 -0.8660254  0.0000000 )    f =( -0.2500000 )
                  (  0.8660254 -0.5000000  0.0000000 )       ( -0.4330127 )
                  (  0.0000000  0.0000000  1.0000000 )       (  0.0000000 )


      isym =  4     120 deg rotation - cryst. axis [0,0,-1]      

 cryst.   s( 4) = (    -1         -1          0      )    f =(  0.0000000 )
                  (     1          0          0      )       ( -0.5000000 )
                  (     0          0          1      )       (  0.0000000 )

 cart.    s( 4) = ( -0.5000000  0.8660254  0.0000000 )    f =(  0.2500000 )
                  ( -0.8660254 -0.5000000  0.0000000 )       ( -0.4330127 )
                  (  0.0000000  0.0000000  1.0000000 )       (  0.0000000 )


      isym =  5     180 deg rotation - cryst. axis [0,1,0]       

 cryst.   s( 5) = (    -1         -1          0      )    f =(  0.0000000 )
                  (     0          1          0      )       ( -0.5000000 )
                  (     0          0         -1      )       (  0.0000000 )

 cart.    s( 5) = ( -0.5000000 -0.8660254  0.0000000 )    f =(  0.2500000 )
                  ( -0.8660254  0.5000000  0.0000000 )       ( -0.4330127 )
                  (  0.0000000  0.0000000 -1.0000000 )       (  0.0000000 )


      isym =  6     180 deg rotation - cart. axis [1,0,0]        

 cryst.   s( 6) = (     1          0          0      )
                  (    -1         -1          0      )
                  (     0          0         -1      )

 cart.    s( 6) = (  1.0000000  0.0000000  0.0000000 )
                  (  0.0000000 -1.0000000  0.0000000 )
                  (  0.0000000  0.0000000 -1.0000000 )


      isym =  7     inversion                                    

 cryst.   s( 7) = (    -1          0          0      )
                  (     0         -1          0      )
                  (     0          0         -1      )

 cart.    s( 7) = ( -1.0000000  0.0000000  0.0000000 )
                  (  0.0000000 -1.0000000  0.0000000 )
                  (  0.0000000  0.0000000 -1.0000000 )


      isym =  8     inv. 180 deg rotation - cart. axis [1,0,0]   

 cryst.   s( 8) = (    -1          0          0      )
                  (     1          1          0      )
                  (     0          0          1      )

 cart.    s( 8) = ( -1.0000000 -0.0000000  0.0000000 )
                  (  0.0000000  1.0000000  0.0000000 )
                  (  0.0000000  0.0000000  1.0000000 )


      isym =  9     inv. 120 deg rotation - cryst. axis [0,0,1]  

 cryst.   s( 9) = (     0         -1          0      )    f =(  0.5000000 )
                  (     1          1          0      )       ( -0.5000000 )
                  (     0          0         -1      )       (  0.0000000 )

 cart.    s( 9) = (  0.5000000  0.8660254  0.0000000 )    f =(  0.7500000 )
                  ( -0.8660254  0.5000000  0.0000000 )       ( -0.4330127 )
                  (  0.0000000  0.0000000 -1.0000000 )       (  0.0000000 )


      isym = 10     inv. 120 deg rotation - cryst. axis [0,0,-1] 

 cryst.   s(10) = (     1          1          0      )    f =(  0.0000000 )
                  (    -1          0          0      )       (  0.5000000 )
                  (     0          0         -1      )       (  0.0000000 )

 cart.    s(10) = (  0.5000000 -0.8660254  0.0000000 )    f =( -0.2500000 )
                  (  0.8660254  0.5000000  0.0000000 )       (  0.4330127 )
                  (  0.0000000  0.0000000 -1.0000000 )       (  0.0000000 )


      isym = 11     inv. 180 deg rotation - cryst. axis [0,1,0]  

 cryst.   s(11) = (     1          1          0      )    f =(  0.0000000 )
                  (     0         -1          0      )       ( -0.5000000 )
                  (     0          0          1      )       (  0.0000000 )

 cart.    s(11) = (  0.5000000  0.8660254  0.0000000 )    f =(  0.2500000 )
                  (  0.8660254 -0.5000000  0.0000000 )       ( -0.4330127 )
                  (  0.0000000  0.0000000  1.0000000 )       (  0.0000000 )


      isym = 12     inv. 180 deg rotation - cryst. axis [1,1,0]  

 cryst.   s(12) = (     0         -1          0      )    f =( -0.5000000 )
                  (    -1          0          0      )       ( -0.5000000 )
                  (     0          0          1      )       (  0.0000000 )

 cart.    s(12) = (  0.5000000 -0.8660254  0.0000000 )    f =( -0.2500000 )
                  ( -0.8660254 -0.5000000  0.0000000 )       ( -0.4330127 )
                  (  0.0000000  0.0000000  1.0000000 )       (  0.0000000 )


     point group D_3d (-3m) 
     there are  6 classes
     the character table:

       E     2C3   3C2'  i     2S6   3s_d 
A_1g   1.00  1.00  1.00  1.00  1.00  1.00
A_2g   1.00  1.00 -1.00  1.00  1.00 -1.00
E_g    2.00 -1.00  0.00  2.00 -1.00  0.00
A_1u   1.00  1.00  1.00 -1.00 -1.00 -1.00
A_2u   1.00  1.00 -1.00 -1.00 -1.00  1.00
E_u    2.00 -1.00  0.00 -2.00  1.00  0.00

     the symmetry operations in each class and the name of the first element:

     E        1
          identity                                               
     2C3      3    4
          120 deg rotation - cryst. axis [0,0,1]                 
     3C2'     2    6    5
          180 deg rotation - cryst. axis [1,1,0]                 
     i        7
          inversion                                              
     2S6      9   10
          inv. 120 deg rotation - cryst. axis [0,0,1]            
     3s_d     8   11   12
          inv. 180 deg rotation - cart. axis [1,0,0]             

   Cartesian axes

     site n.     atom                  positions (alat units)
         1           C   tau(   1) = (   0.5000000   0.5773503  -0.0938425  )
         2           C   tau(   2) = (  -0.0000000   0.2886751   0.0938425  )
         3           F   tau(   3) = (   0.5000000   0.5773503  -0.6234719  )
         4           F   tau(   4) = (  -0.0000000   0.2886751   0.6234719  )

   Crystallographic axes

     site n.     atom                  positions (cryst. coord.)
         1           C   tau(   1) = (  0.8333333  0.6666667 -0.0132153  )
         2           C   tau(   2) = (  0.1666667  0.3333333  0.0132153  )
         3           F   tau(   3) = (  0.8333333  0.6666667 -0.0877999  )
         4           F   tau(   4) = (  0.1666667  0.3333333  0.0877999  )

     number of k points=   342  Marzari-Vanderbilt smearing, width (Ry)=  0.0010
                       cart. coord. in units 2pi/alat
        k(    1) = (   0.0000000   0.0000000   0.0000000), wk =   0.0061728
        k(    2) = (   0.2222222   0.3849002   0.0000000), wk =   0.0000000
        k(    3) = (   0.0000000   0.0641500   0.0000000), wk =   0.0123457
        k(    4) = (   0.2222222   0.4490502   0.0000000), wk =   0.0000000
        k(    5) = (   0.0000000   0.1283001   0.0000000), wk =   0.0123457
        k(    6) = (   0.2222222   0.5132002   0.0000000), wk =   0.0000000
        k(    7) = (   0.0000000   0.1924501   0.0000000), wk =   0.0123457
        k(    8) = (   0.2222222   0.5773503   0.0000000), wk =   0.0000000
        k(    9) = (   0.0000000   0.2566001   0.0000000), wk =   0.0123457
        k(   10) = (   0.2222222   0.6415003   0.0000000), wk =   0.0000000
        k(   11) = (   0.0000000   0.3207501   0.0000000), wk =   0.0123457
        k(   12) = (   0.2222222   0.7056503   0.0000000), wk =   0.0000000
        k(   13) = (   0.0000000   0.3849002   0.0000000), wk =   0.0123457
        k(   14) = (   0.2222222   0.7698004   0.0000000), wk =   0.0000000
        k(   15) = (   0.0000000   0.4490502   0.0000000), wk =   0.0123457
        k(   16) = (   0.2222222   0.8339504   0.0000000), wk =   0.0000000
        k(   17) = (   0.0000000   0.5132002   0.0000000), wk =   0.0123457
        k(   18) = (   0.2222222   0.8981004   0.0000000), wk =   0.0000000
        k(   19) = (   0.0000000  -0.5773503   0.0000000), wk =   0.0123457
        k(   20) = (   0.2222222  -0.1924501   0.0000000), wk =   0.0000000
        k(   21) = (   0.0555556   0.0962250   0.0000000), wk =   0.0061728
        k(   22) = (   0.2777778   0.4811252   0.0000000), wk =   0.0000000
        k(   23) = (   0.0555556   0.1603751   0.0000000), wk =   0.0123457
        k(   24) = (   0.2777778   0.5452753   0.0000000), wk =   0.0000000
        k(   25) = (   0.0555556   0.2245251   0.0000000), wk =   0.0123457
        k(   26) = (   0.2777778   0.6094253   0.0000000), wk =   0.0000000
        k(   27) = (   0.0555556   0.2886751   0.0000000), wk =   0.0123457
        k(   28) = (   0.2777778   0.6735753   0.0000000), wk =   0.0000000
        k(   29) = (   0.0555556   0.3528252   0.0000000), wk =   0.0123457
        k(   30) = (   0.2777778   0.7377253   0.0000000), wk =   0.0000000
        k(   31) = (   0.0555556   0.4169752   0.0000000), wk =   0.0123457
        k(   32) = (   0.2777778   0.8018754   0.0000000), wk =   0.0000000
        k(   33) = (   0.0555556   0.4811252   0.0000000), wk =   0.0123457
        k(   34) = (   0.2777778   0.8660254   0.0000000), wk =   0.0000000
        k(   35) = (   0.0555556   0.5452753   0.0000000), wk =   0.0123457
        k(   36) = (   0.2777778   0.9301754   0.0000000), wk =   0.0000000
        k(   37) = (   0.1111111   0.1924501   0.0000000), wk =   0.0061728
        k(   38) = (   0.3333333   0.5773503   0.0000000), wk =   0.0000000
        k(   39) = (   0.1111111   0.2566001   0.0000000), wk =   0.0123457
        k(   40) = (   0.3333333   0.6415003   0.0000000), wk =   0.0000000
        k(   41) = (   0.1111111   0.3207501   0.0000000), wk =   0.0123457
        k(   42) = (   0.3333333   0.7056503   0.0000000), wk =   0.0000000
        k(   43) = (   0.1111111   0.3849002   0.0000000), wk =   0.0123457
        k(   44) = (   0.3333333   0.7698004   0.0000000), wk =   0.0000000
        k(   45) = (   0.1111111   0.4490502   0.0000000), wk =   0.0123457
        k(   46) = (   0.3333333   0.8339504   0.0000000), wk =   0.0000000
        k(   47) = (   0.1111111   0.5132002   0.0000000), wk =   0.0123457
        k(   48) = (   0.3333333   0.8981004   0.0000000), wk =   0.0000000
        k(   49) = (   0.1111111   0.5773503   0.0000000), wk =   0.0123457
        k(   50) = (   0.3333333   0.9622504   0.0000000), wk =   0.0000000
        k(   51) = (   0.1666667   0.2886751   0.0000000), wk =   0.0061728
        k(   52) = (   0.3888889   0.6735753   0.0000000), wk =   0.0000000
        k(   53) = (   0.1666667   0.3528252   0.0000000), wk =   0.0123457
        k(   54) = (   0.3888889   0.7377253   0.0000000), wk =   0.0000000
        k(   55) = (   0.1666667   0.4169752   0.0000000), wk =   0.0123457
        k(   56) = (   0.3888889   0.8018754   0.0000000), wk =   0.0000000
        k(   57) = (   0.1666667   0.4811252   0.0000000), wk =   0.0123457
        k(   58) = (   0.3888889   0.8660254   0.0000000), wk =   0.0000000
        k(   59) = (   0.1666667   0.5452753   0.0000000), wk =   0.0123457
        k(   60) = (   0.3888889   0.9301754   0.0000000), wk =   0.0000000
        k(   61) = (   0.2222222   0.3849002   0.0000000), wk =   0.0061728
        k(   62) = (   0.4444444   0.7698004   0.0000000), wk =   0.0000000
        k(   63) = (   0.2222222   0.4490502   0.0000000), wk =   0.0123457
        k(   64) = (   0.4444444   0.8339504   0.0000000), wk =   0.0000000
        k(   65) = (   0.2222222   0.5132002   0.0000000), wk =   0.0123457
        k(   66) = (   0.4444444   0.8981004   0.0000000), wk =   0.0000000
        k(   67) = (   0.2222222   0.5773503   0.0000000), wk =   0.0123457
        k(   68) = (   0.4444444   0.9622504   0.0000000), wk =   0.0000000
        k(   69) = (   0.2777778   0.4811252   0.0000000), wk =   0.0061728
        k(   70) = (   0.5000000   0.8660254   0.0000000), wk =   0.0000000
        k(   71) = (   0.2777778   0.5452753   0.0000000), wk =   0.0123457
        k(   72) = (   0.5000000   0.9301754   0.0000000), wk =   0.0000000
        k(   73) = (   0.3333333   0.5773503   0.0000000), wk =   0.0061728
        k(   74) = (   0.5555556   0.9622504   0.0000000), wk =   0.0000000
        k(   75) = (  -0.0555556  -0.0320750   0.0000000), wk =   0.0123457
        k(   76) = (   0.1666667   0.3528252   0.0000000), wk =   0.0000000
        k(   77) = (   0.0555556  -0.0320750   0.0000000), wk =   0.0123457
        k(   78) = (   0.2777778   0.3528252   0.0000000), wk =   0.0000000
        k(   79) = (  -0.1111111  -0.0641500   0.0000000), wk =   0.0123457
        k(   80) = (   0.1111111   0.3207501   0.0000000), wk =   0.0000000
        k(   81) = (   0.1111111  -0.0641500   0.0000000), wk =   0.0123457
        k(   82) = (   0.3333333   0.3207501   0.0000000), wk =   0.0000000
        k(   83) = (  -0.1666667  -0.0962250   0.0000000), wk =   0.0123457
        k(   84) = (   0.0555556   0.2886751   0.0000000), wk =   0.0000000
        k(   85) = (   0.1666667  -0.0962250   0.0000000), wk =   0.0123457
        k(   86) = (   0.3888889   0.2886751   0.0000000), wk =   0.0000000
        k(   87) = (  -0.2222222  -0.1283001   0.0000000), wk =   0.0123457
        k(   88) = (   0.0000000   0.2566001   0.0000000), wk =   0.0000000
        k(   89) = (   0.2222222  -0.1283001   0.0000000), wk =   0.0123457
        k(   90) = (   0.4444444   0.2566001   0.0000000), wk =   0.0000000
        k(   91) = (  -0.2777778  -0.1603751   0.0000000), wk =   0.0123457
        k(   92) = (  -0.0555556   0.2245251   0.0000000), wk =   0.0000000
        k(   93) = (   0.2777778  -0.1603751   0.0000000), wk =   0.0123457
        k(   94) = (   0.5000000   0.2245251   0.0000000), wk =   0.0000000
        k(   95) = (  -0.3333333  -0.1924501   0.0000000), wk =   0.0123457
        k(   96) = (  -0.1111111   0.1924501   0.0000000), wk =   0.0000000
        k(   97) = (   0.3333333  -0.1924501   0.0000000), wk =   0.0123457
        k(   98) = (   0.5555556   0.1924501   0.0000000), wk =   0.0000000
        k(   99) = (  -0.3888889  -0.2245251   0.0000000), wk =   0.0123457
        k(  100) = (  -0.1666667   0.1603751   0.0000000), wk =   0.0000000
        k(  101) = (   0.3888889  -0.2245251   0.0000000), wk =   0.0123457
        k(  102) = (   0.6111111   0.1603751   0.0000000), wk =   0.0000000
        k(  103) = (  -0.4444444  -0.2566001   0.0000000), wk =   0.0123457
        k(  104) = (  -0.2222222   0.1283001   0.0000000), wk =   0.0000000
        k(  105) = (   0.4444444  -0.2566001   0.0000000), wk =   0.0123457
        k(  106) = (   0.6666667   0.1283001   0.0000000), wk =   0.0000000
        k(  107) = (  -0.5000000   0.2886751   0.0000000), wk =   0.0061728
        k(  108) = (  -0.2777778   0.6735753   0.0000000), wk =   0.0000000
        k(  109) = (  -0.1111111  -0.0000000   0.0000000), wk =   0.0123457
        k(  110) = (   0.1111111   0.3849002   0.0000000), wk =   0.0000000
        k(  111) = (  -0.0555556  -0.0962250   0.0000000), wk =   0.0061728
        k(  112) = (   0.1666667   0.2886751   0.0000000), wk =   0.0000000
        k(  113) = (  -0.0555556   0.0962250   0.0000000), wk =   0.0123457
        k(  114) = (   0.1666667   0.4811252   0.0000000), wk =   0.0000000
        k(  115) = (  -0.1666667  -0.0320750   0.0000000), wk =   0.0123457
        k(  116) = (   0.0555556   0.3528252   0.0000000), wk =   0.0000000
        k(  117) = (   0.1111111  -0.1283001   0.0000000), wk =   0.0123457
        k(  118) = (   0.3333333   0.2566001   0.0000000), wk =   0.0000000
        k(  119) = (  -0.0555556  -0.1603751   0.0000000), wk =   0.0123457
        k(  120) = (   0.1666667   0.2245251   0.0000000), wk =   0.0000000
        k(  121) = (  -0.0555556   0.1603751   0.0000000), wk =   0.0123457
        k(  122) = (   0.1666667   0.5452753   0.0000000), wk =   0.0000000
        k(  123) = (  -0.1111111   0.1283001   0.0000000), wk =   0.0123457
        k(  124) = (   0.1111111   0.5132002   0.0000000), wk =   0.0000000
        k(  125) = (  -0.2222222  -0.0641500   0.0000000), wk =   0.0123457
        k(  126) = (   0.0000000   0.3207501   0.0000000), wk =   0.0000000
        k(  127) = (   0.1666667  -0.1603751   0.0000000), wk =   0.0123457
        k(  128) = (   0.3888889   0.2245251   0.0000000), wk =   0.0000000
        k(  129) = (  -0.0555556  -0.2245251   0.0000000), wk =   0.0123457
        k(  130) = (   0.1666667   0.1603751   0.0000000), wk =   0.0000000
        k(  131) = (  -0.0555556   0.2245251   0.0000000), wk =   0.0123457
        k(  132) = (   0.1666667   0.6094253   0.0000000), wk =   0.0000000
        k(  133) = (  -0.1666667   0.1603751   0.0000000), wk =   0.0123457
        k(  134) = (   0.0555556   0.5452753   0.0000000), wk =   0.0000000
        k(  135) = (  -0.2777778  -0.0962250   0.0000000), wk =   0.0123457
        k(  136) = (  -0.0555556   0.2886751   0.0000000), wk =   0.0000000
        k(  137) = (   0.2222222  -0.1924501   0.0000000), wk =   0.0123457
        k(  138) = (   0.4444444   0.1924501   0.0000000), wk =   0.0000000
        k(  139) = (  -0.0555556  -0.2886751   0.0000000), wk =   0.0123457
        k(  140) = (   0.1666667   0.0962250   0.0000000), wk =   0.0000000
        k(  141) = (  -0.0555556   0.2886751   0.0000000), wk =   0.0123457
        k(  142) = (   0.1666667   0.6735753   0.0000000), wk =   0.0000000
        k(  143) = (  -0.2222222   0.1924501   0.0000000), wk =   0.0123457
        k(  144) = (   0.0000000   0.5773503   0.0000000), wk =   0.0000000
        k(  145) = (  -0.3333333  -0.1283001   0.0000000), wk =   0.0123457
        k(  146) = (  -0.1111111   0.2566001   0.0000000), wk =   0.0000000
        k(  147) = (   0.2777778  -0.2245251   0.0000000), wk =   0.0123457
        k(  148) = (   0.5000000   0.1603751   0.0000000), wk =   0.0000000
        k(  149) = (  -0.0555556  -0.3528252   0.0000000), wk =   0.0123457
        k(  150) = (   0.1666667   0.0320750   0.0000000), wk =   0.0000000
        k(  151) = (  -0.0555556   0.3528252   0.0000000), wk =   0.0123457
        k(  152) = (   0.1666667   0.7377253   0.0000000), wk =   0.0000000
        k(  153) = (  -0.2777778   0.2245251   0.0000000), wk =   0.0123457
        k(  154) = (  -0.0555556   0.6094253   0.0000000), wk =   0.0000000
        k(  155) = (  -0.3888889  -0.1603751   0.0000000), wk =   0.0123457
        k(  156) = (  -0.1666667   0.2245251   0.0000000), wk =   0.0000000
        k(  157) = (   0.3333333  -0.2566001   0.0000000), wk =   0.0123457
        k(  158) = (   0.5555556   0.1283001   0.0000000), wk =   0.0000000
        k(  159) = (  -0.0555556  -0.4169752   0.0000000), wk =   0.0123457
        k(  160) = (   0.1666667  -0.0320750   0.0000000), wk =   0.0000000
        k(  161) = (  -0.0555556   0.4169752   0.0000000), wk =   0.0123457
        k(  162) = (   0.1666667   0.8018754   0.0000000), wk =   0.0000000
        k(  163) = (  -0.3333333   0.2566001   0.0000000), wk =   0.0123457
        k(  164) = (  -0.1111111   0.6415003   0.0000000), wk =   0.0000000
        k(  165) = (  -0.4444444  -0.1924501   0.0000000), wk =   0.0123457
        k(  166) = (  -0.2222222   0.1924501   0.0000000), wk =   0.0000000
        k(  167) = (   0.3888889  -0.2886751   0.0000000), wk =   0.0123457
        k(  168) = (   0.6111111   0.0962250   0.0000000), wk =   0.0000000
        k(  169) = (  -0.0555556  -0.4811252   0.0000000), wk =   0.0123457
        k(  170) = (   0.1666667  -0.0962250   0.0000000), wk =   0.0000000
        k(  171) = (  -0.0555556   0.4811252   0.0000000), wk =   0.0123457
        k(  172) = (   0.1666667   0.8660254   0.0000000), wk =   0.0000000
        k(  173) = (  -0.3888889   0.2886751   0.0000000), wk =   0.0123457
        k(  174) = (  -0.1666667   0.6735753   0.0000000), wk =   0.0000000
        k(  175) = (  -0.5000000  -0.2245251   0.0000000), wk =   0.0123457
        k(  176) = (  -0.2777778   0.1603751   0.0000000), wk =   0.0000000
        k(  177) = (   0.4444444  -0.3207501   0.0000000), wk =   0.0123457
        k(  178) = (   0.6666667   0.0641500   0.0000000), wk =   0.0000000
        k(  179) = (  -0.0555556  -0.5452753   0.0000000), wk =   0.0123457
        k(  180) = (   0.1666667  -0.1603751   0.0000000), wk =   0.0000000
        k(  181) = (  -0.0555556   0.5452753   0.0000000), wk =   0.0123457
        k(  182) = (   0.1666667   0.9301754   0.0000000), wk =   0.0000000
        k(  183) = (  -0.4444444   0.3207501   0.0000000), wk =   0.0123457
        k(  184) = (  -0.2222222   0.7056503   0.0000000), wk =   0.0000000
        k(  185) = (  -0.2222222  -0.0000000   0.0000000), wk =   0.0123457
        k(  186) = (   0.0000000   0.3849002   0.0000000), wk =   0.0000000
        k(  187) = (  -0.1111111  -0.1924501   0.0000000), wk =   0.0061728
        k(  188) = (   0.1111111   0.1924501   0.0000000), wk =   0.0000000
        k(  189) = (  -0.1111111   0.1924501   0.0000000), wk =   0.0123457
        k(  190) = (   0.1111111   0.5773503   0.0000000), wk =   0.0000000
        k(  191) = (  -0.2777778  -0.0320750   0.0000000), wk =   0.0123457
        k(  192) = (  -0.0555556   0.3528252   0.0000000), wk =   0.0000000
        k(  193) = (   0.1666667  -0.2245251   0.0000000), wk =   0.0123457
        k(  194) = (   0.3888889   0.1603751   0.0000000), wk =   0.0000000
        k(  195) = (  -0.1111111  -0.2566001   0.0000000), wk =   0.0123457
        k(  196) = (   0.1111111   0.1283001   0.0000000), wk =   0.0000000
        k(  197) = (  -0.1111111   0.2566001   0.0000000), wk =   0.0123457
        k(  198) = (   0.1111111   0.6415003   0.0000000), wk =   0.0000000
        k(  199) = (  -0.1666667   0.2245251   0.0000000), wk =   0.0123457
        k(  200) = (   0.0555556   0.6094253   0.0000000), wk =   0.0000000
        k(  201) = (  -0.3333333  -0.0641500   0.0000000), wk =   0.0123457
        k(  202) = (  -0.1111111   0.3207501   0.0000000), wk =   0.0000000
        k(  203) = (   0.2222222  -0.2566001   0.0000000), wk =   0.0123457
        k(  204) = (   0.4444444   0.1283001   0.0000000), wk =   0.0000000
        k(  205) = (  -0.1111111  -0.3207501   0.0000000), wk =   0.0123457
        k(  206) = (   0.1111111   0.0641500   0.0000000), wk =   0.0000000
        k(  207) = (  -0.1111111   0.3207501   0.0000000), wk =   0.0123457
        k(  208) = (   0.1111111   0.7056503   0.0000000), wk =   0.0000000
        k(  209) = (  -0.2222222   0.2566001   0.0000000), wk =   0.0123457
        k(  210) = (   0.0000000   0.6415003   0.0000000), wk =   0.0000000
        k(  211) = (  -0.3888889  -0.0962250   0.0000000), wk =   0.0123457
        k(  212) = (  -0.1666667   0.2886751   0.0000000), wk =   0.0000000
        k(  213) = (   0.2777778  -0.2886751   0.0000000), wk =   0.0123457
        k(  214) = (   0.5000000   0.0962250   0.0000000), wk =   0.0000000
        k(  215) = (  -0.1111111  -0.3849002   0.0000000), wk =   0.0123457
        k(  216) = (   0.1111111   0.0000000   0.0000000), wk =   0.0000000
        k(  217) = (  -0.1111111   0.3849002   0.0000000), wk =   0.0123457
        k(  218) = (   0.1111111   0.7698004   0.0000000), wk =   0.0000000
        k(  219) = (  -0.2777778   0.2886751   0.0000000), wk =   0.0123457
        k(  220) = (  -0.0555556   0.6735753   0.0000000), wk =   0.0000000
        k(  221) = (  -0.4444444  -0.1283001   0.0000000), wk =   0.0123457
        k(  222) = (  -0.2222222   0.2566001   0.0000000), wk =   0.0000000
        k(  223) = (   0.3333333  -0.3207501   0.0000000), wk =   0.0123457
        k(  224) = (   0.5555556   0.0641500   0.0000000), wk =   0.0000000
        k(  225) = (  -0.1111111  -0.4490502   0.0000000), wk =   0.0123457
        k(  226) = (   0.1111111  -0.0641500   0.0000000), wk =   0.0000000
        k(  227) = (  -0.1111111   0.4490502   0.0000000), wk =   0.0123457
        k(  228) = (   0.1111111   0.8339504   0.0000000), wk =   0.0000000
        k(  229) = (  -0.3333333   0.3207501   0.0000000), wk =   0.0123457
        k(  230) = (  -0.1111111   0.7056503   0.0000000), wk =   0.0000000
        k(  231) = (  -0.5000000  -0.1603751   0.0000000), wk =   0.0123457
        k(  232) = (  -0.2777778   0.2245251   0.0000000), wk =   0.0000000
        k(  233) = (   0.3888889  -0.3528252   0.0000000), wk =   0.0123457
        k(  234) = (   0.6111111   0.0320750   0.0000000), wk =   0.0000000
        k(  235) = (  -0.1111111  -0.5132002   0.0000000), wk =   0.0123457
        k(  236) = (   0.1111111  -0.1283001   0.0000000), wk =   0.0000000
        k(  237) = (  -0.1111111   0.5132002   0.0000000), wk =   0.0123457
        k(  238) = (   0.1111111   0.8981004   0.0000000), wk =   0.0000000
        k(  239) = (  -0.3888889   0.3528252   0.0000000), wk =   0.0123457
        k(  240) = (  -0.1666667   0.7377253   0.0000000), wk =   0.0000000
        k(  241) = (   0.4444444  -0.3849002   0.0000000), wk =   0.0061728
        k(  242) = (   0.6666667   0.0000000   0.0000000), wk =   0.0000000
        k(  243) = (  -0.1111111  -0.5773503   0.0000000), wk =   0.0123457
        k(  244) = (   0.1111111  -0.1924501   0.0000000), wk =   0.0000000
        k(  245) = (  -0.4444444   0.3849002   0.0000000), wk =   0.0061728
        k(  246) = (  -0.2222222   0.7698004   0.0000000), wk =   0.0000000
        k(  247) = (  -0.3333333  -0.0000000   0.0000000), wk =   0.0123457
        k(  248) = (  -0.1111111   0.3849002   0.0000000), wk =   0.0000000
        k(  249) = (  -0.1666667  -0.2886751   0.0000000), wk =   0.0061728
        k(  250) = (   0.0555556   0.0962250   0.0000000), wk =   0.0000000
        k(  251) = (  -0.1666667   0.2886751   0.0000000), wk =   0.0123457
        k(  252) = (   0.0555556   0.6735753   0.0000000), wk =   0.0000000
        k(  253) = (  -0.3888889  -0.0320750   0.0000000), wk =   0.0123457
        k(  254) = (  -0.1666667   0.3528252   0.0000000), wk =   0.0000000
        k(  255) = (   0.2222222  -0.3207501   0.0000000), wk =   0.0123457
        k(  256) = (   0.4444444   0.0641500   0.0000000), wk =   0.0000000
        k(  257) = (  -0.1666667  -0.3528252   0.0000000), wk =   0.0123457
        k(  258) = (   0.0555556   0.0320750   0.0000000), wk =   0.0000000
        k(  259) = (  -0.1666667   0.3528252   0.0000000), wk =   0.0123457
        k(  260) = (   0.0555556   0.7377253   0.0000000), wk =   0.0000000
        k(  261) = (  -0.2222222   0.3207501   0.0000000), wk =   0.0123457
        k(  262) = (  -0.0000000   0.7056503   0.0000000), wk =   0.0000000
        k(  263) = (  -0.4444444  -0.0641500   0.0000000), wk =   0.0123457
        k(  264) = (  -0.2222222   0.3207501   0.0000000), wk =   0.0000000
        k(  265) = (   0.2777778  -0.3528252   0.0000000), wk =   0.0123457
        k(  266) = (   0.5000000   0.0320750   0.0000000), wk =   0.0000000
        k(  267) = (  -0.1666667  -0.4169752   0.0000000), wk =   0.0123457
        k(  268) = (   0.0555556  -0.0320750   0.0000000), wk =   0.0000000
        k(  269) = (  -0.1666667   0.4169752   0.0000000), wk =   0.0123457
        k(  270) = (   0.0555556   0.8018754   0.0000000), wk =   0.0000000
        k(  271) = (  -0.2777778   0.3528252   0.0000000), wk =   0.0123457
        k(  272) = (  -0.0555556   0.7377253   0.0000000), wk =   0.0000000
        k(  273) = (  -0.5000000  -0.0962250   0.0000000), wk =   0.0123457
        k(  274) = (  -0.2777778   0.2886751   0.0000000), wk =   0.0000000
        k(  275) = (   0.3333333  -0.3849002   0.0000000), wk =   0.0123457
        k(  276) = (   0.5555556   0.0000000   0.0000000), wk =   0.0000000
        k(  277) = (  -0.1666667  -0.4811252   0.0000000), wk =   0.0123457
        k(  278) = (   0.0555556  -0.0962250   0.0000000), wk =   0.0000000
        k(  279) = (  -0.1666667   0.4811252   0.0000000), wk =   0.0123457
        k(  280) = (   0.0555556   0.8660254   0.0000000), wk =   0.0000000
        k(  281) = (  -0.3333333   0.3849002   0.0000000), wk =   0.0123457
        k(  282) = (  -0.1111111   0.7698004   0.0000000), wk =   0.0000000
        k(  283) = (  -0.5555556  -0.1283001   0.0000000), wk =   0.0123457
        k(  284) = (  -0.3333333   0.2566001   0.0000000), wk =   0.0000000
        k(  285) = (   0.3888889  -0.4169752   0.0000000), wk =   0.0123457
        k(  286) = (   0.6111111  -0.0320750   0.0000000), wk =   0.0000000
        k(  287) = (  -0.1666667  -0.5452753   0.0000000), wk =   0.0123457
        k(  288) = (   0.0555556  -0.1603751   0.0000000), wk =   0.0000000
        k(  289) = (  -0.1666667   0.5452753   0.0000000), wk =   0.0123457
        k(  290) = (   0.0555556   0.9301754   0.0000000), wk =   0.0000000
        k(  291) = (  -0.3888889   0.4169752   0.0000000), wk =   0.0123457
        k(  292) = (  -0.1666667   0.8018754   0.0000000), wk =   0.0000000
        k(  293) = (  -0.4444444  -0.0000000   0.0000000), wk =   0.0123457
        k(  294) = (  -0.2222222   0.3849002   0.0000000), wk =   0.0000000
        k(  295) = (  -0.2222222  -0.3849002   0.0000000), wk =   0.0061728
        k(  296) = (   0.0000000  -0.0000000   0.0000000), wk =   0.0000000
        k(  297) = (  -0.2222222   0.3849002   0.0000000), wk =   0.0123457
        k(  298) = (   0.0000000   0.7698004   0.0000000), wk =   0.0000000
        k(  299) = (  -0.5000000  -0.0320750   0.0000000), wk =   0.0123457
        k(  300) = (  -0.2777778   0.3528252   0.0000000), wk =   0.0000000
        k(  301) = (   0.2777778  -0.4169752   0.0000000), wk =   0.0123457
        k(  302) = (   0.5000000  -0.0320750   0.0000000), wk =   0.0000000
        k(  303) = (  -0.2222222  -0.4490502   0.0000000), wk =   0.0123457
        k(  304) = (   0.0000000  -0.0641500   0.0000000), wk =   0.0000000
        k(  305) = (  -0.2222222   0.4490502   0.0000000), wk =   0.0123457
        k(  306) = (   0.0000000   0.8339504   0.0000000), wk =   0.0000000
        k(  307) = (  -0.2777778   0.4169752   0.0000000), wk =   0.0123457
        k(  308) = (  -0.0555556   0.8018754   0.0000000), wk =   0.0000000
        k(  309) = (  -0.5555556  -0.0641500   0.0000000), wk =   0.0123457
        k(  310) = (  -0.3333333   0.3207501   0.0000000), wk =   0.0000000
        k(  311) = (   0.3333333  -0.4490502   0.0000000), wk =   0.0123457
        k(  312) = (   0.5555556  -0.0641500   0.0000000), wk =   0.0000000
        k(  313) = (  -0.2222222  -0.5132002   0.0000000), wk =   0.0123457
        k(  314) = (   0.0000000  -0.1283001   0.0000000), wk =   0.0000000
        k(  315) = (  -0.2222222   0.5132002   0.0000000), wk =   0.0123457
        k(  316) = (   0.0000000   0.8981004   0.0000000), wk =   0.0000000
        k(  317) = (  -0.3333333   0.4490502   0.0000000), wk =   0.0123457
        k(  318) = (  -0.1111111   0.8339504   0.0000000), wk =   0.0000000
        k(  319) = (   0.3888889  -0.4811252   0.0000000), wk =   0.0061728
        k(  320) = (   0.6111111  -0.0962250   0.0000000), wk =   0.0000000
        k(  321) = (  -0.2222222  -0.5773503   0.0000000), wk =   0.0123457
        k(  322) = (   0.0000000  -0.1924501   0.0000000), wk =   0.0000000
        k(  323) = (  -0.3888889   0.4811252   0.0000000), wk =   0.0061728
        k(  324) = (  -0.1666667   0.8660254   0.0000000), wk =   0.0000000
        k(  325) = (  -0.5555556  -0.0000000   0.0000000), wk =   0.0123457
        k(  326) = (  -0.3333333   0.3849002   0.0000000), wk =   0.0000000
        k(  327) = (  -0.2777778  -0.4811252   0.0000000), wk =   0.0061728
        k(  328) = (  -0.0555556  -0.0962250   0.0000000), wk =   0.0000000
        k(  329) = (  -0.2777778   0.4811252   0.0000000), wk =   0.0123457
        k(  330) = (  -0.0555556   0.8660254   0.0000000), wk =   0.0000000
        k(  331) = (  -0.6111111  -0.0320750   0.0000000), wk =   0.0123457
        k(  332) = (  -0.3888889   0.3528252   0.0000000), wk =   0.0000000
        k(  333) = (   0.3333333  -0.5132002   0.0000000), wk =   0.0123457
        k(  334) = (   0.5555556  -0.1283001   0.0000000), wk =   0.0000000
        k(  335) = (  -0.2777778  -0.5452753   0.0000000), wk =   0.0123457
        k(  336) = (  -0.0555556  -0.1603751   0.0000000), wk =   0.0000000
        k(  337) = (  -0.2777778   0.5452753   0.0000000), wk =   0.0123457
        k(  338) = (  -0.0555556   0.9301754   0.0000000), wk =   0.0000000
        k(  339) = (  -0.3333333   0.5132002   0.0000000), wk =   0.0123457
        k(  340) = (  -0.1111111   0.8981004   0.0000000), wk =   0.0000000
        k(  341) = (  -0.3333333  -0.5773503   0.0000000), wk =   0.0061728
        k(  342) = (  -0.1111111  -0.1924501   0.0000000), wk =   0.0000000

                       cryst. coord.
        k(    1) = (   0.0000000   0.0000000   0.0000000), wk =   0.0061728
        k(    2) = (   0.2222222   0.2222222   0.0000000), wk =   0.0000000
        k(    3) = (   0.0000000   0.0555556   0.0000000), wk =   0.0123457
        k(    4) = (   0.2222222   0.2777778   0.0000000), wk =   0.0000000
        k(    5) = (   0.0000000   0.1111111   0.0000000), wk =   0.0123457
        k(    6) = (   0.2222222   0.3333333   0.0000000), wk =   0.0000000
        k(    7) = (   0.0000000   0.1666667   0.0000000), wk =   0.0123457
        k(    8) = (   0.2222222   0.3888889   0.0000000), wk =   0.0000000
        k(    9) = (   0.0000000   0.2222222   0.0000000), wk =   0.0123457
        k(   10) = (   0.2222222   0.4444444   0.0000000), wk =   0.0000000
        k(   11) = (   0.0000000   0.2777778   0.0000000), wk =   0.0123457
        k(   12) = (   0.2222222   0.5000000   0.0000000), wk =   0.0000000
        k(   13) = (   0.0000000   0.3333333   0.0000000), wk =   0.0123457
        k(   14) = (   0.2222222   0.5555556   0.0000000), wk =   0.0000000
        k(   15) = (   0.0000000   0.3888889   0.0000000), wk =   0.0123457
        k(   16) = (   0.2222222   0.6111111   0.0000000), wk =   0.0000000
        k(   17) = (   0.0000000   0.4444444   0.0000000), wk =   0.0123457
        k(   18) = (   0.2222222   0.6666667   0.0000000), wk =   0.0000000
        k(   19) = (   0.0000000  -0.5000000   0.0000000), wk =   0.0123457
        k(   20) = (   0.2222222  -0.2777778   0.0000000), wk =   0.0000000
        k(   21) = (   0.0555556   0.0555556   0.0000000), wk =   0.0061728
        k(   22) = (   0.2777778   0.2777778   0.0000000), wk =   0.0000000
        k(   23) = (   0.0555556   0.1111111   0.0000000), wk =   0.0123457
        k(   24) = (   0.2777778   0.3333333   0.0000000), wk =   0.0000000
        k(   25) = (   0.0555556   0.1666667   0.0000000), wk =   0.0123457
        k(   26) = (   0.2777778   0.3888889   0.0000000), wk =   0.0000000
        k(   27) = (   0.0555556   0.2222222   0.0000000), wk =   0.0123457
        k(   28) = (   0.2777778   0.4444444   0.0000000), wk =   0.0000000
        k(   29) = (   0.0555556   0.2777778   0.0000000), wk =   0.0123457
        k(   30) = (   0.2777778   0.5000000   0.0000000), wk =   0.0000000
        k(   31) = (   0.0555556   0.3333333   0.0000000), wk =   0.0123457
        k(   32) = (   0.2777778   0.5555556   0.0000000), wk =   0.0000000
        k(   33) = (   0.0555556   0.3888889   0.0000000), wk =   0.0123457
        k(   34) = (   0.2777778   0.6111111   0.0000000), wk =   0.0000000
        k(   35) = (   0.0555556   0.4444444   0.0000000), wk =   0.0123457
        k(   36) = (   0.2777778   0.6666667   0.0000000), wk =   0.0000000
        k(   37) = (   0.1111111   0.1111111   0.0000000), wk =   0.0061728
        k(   38) = (   0.3333333   0.3333333   0.0000000), wk =   0.0000000
        k(   39) = (   0.1111111   0.1666667   0.0000000), wk =   0.0123457
        k(   40) = (   0.3333333   0.3888889   0.0000000), wk =   0.0000000
        k(   41) = (   0.1111111   0.2222222   0.0000000), wk =   0.0123457
        k(   42) = (   0.3333333   0.4444444   0.0000000), wk =   0.0000000
        k(   43) = (   0.1111111   0.2777778   0.0000000), wk =   0.0123457
        k(   44) = (   0.3333333   0.5000000   0.0000000), wk =   0.0000000
        k(   45) = (   0.1111111   0.3333333   0.0000000), wk =   0.0123457
        k(   46) = (   0.3333333   0.5555556   0.0000000), wk =   0.0000000
        k(   47) = (   0.1111111   0.3888889   0.0000000), wk =   0.0123457
        k(   48) = (   0.3333333   0.6111111   0.0000000), wk =   0.0000000
        k(   49) = (   0.1111111   0.4444444   0.0000000), wk =   0.0123457
        k(   50) = (   0.3333333   0.6666667   0.0000000), wk =   0.0000000
        k(   51) = (   0.1666667   0.1666667   0.0000000), wk =   0.0061728
        k(   52) = (   0.3888889   0.3888889   0.0000000), wk =   0.0000000
        k(   53) = (   0.1666667   0.2222222   0.0000000), wk =   0.0123457
        k(   54) = (   0.3888889   0.4444444   0.0000000), wk =   0.0000000
        k(   55) = (   0.1666667   0.2777778   0.0000000), wk =   0.0123457
        k(   56) = (   0.3888889   0.5000000   0.0000000), wk =   0.0000000
        k(   57) = (   0.1666667   0.3333333   0.0000000), wk =   0.0123457
        k(   58) = (   0.3888889   0.5555556   0.0000000), wk =   0.0000000
        k(   59) = (   0.1666667   0.3888889   0.0000000), wk =   0.0123457
        k(   60) = (   0.3888889   0.6111111   0.0000000), wk =   0.0000000
        k(   61) = (   0.2222222   0.2222222   0.0000000), wk =   0.0061728
        k(   62) = (   0.4444444   0.4444444   0.0000000), wk =   0.0000000
        k(   63) = (   0.2222222   0.2777778   0.0000000), wk =   0.0123457
        k(   64) = (   0.4444444   0.5000000   0.0000000), wk =   0.0000000
        k(   65) = (   0.2222222   0.3333333   0.0000000), wk =   0.0123457
        k(   66) = (   0.4444444   0.5555556   0.0000000), wk =   0.0000000
        k(   67) = (   0.2222222   0.3888889   0.0000000), wk =   0.0123457
        k(   68) = (   0.4444444   0.6111111   0.0000000), wk =   0.0000000
        k(   69) = (   0.2777778   0.2777778   0.0000000), wk =   0.0061728
        k(   70) = (   0.5000000   0.5000000   0.0000000), wk =   0.0000000
        k(   71) = (   0.2777778   0.3333333   0.0000000), wk =   0.0123457
        k(   72) = (   0.5000000   0.5555556   0.0000000), wk =   0.0000000
        k(   73) = (   0.3333333   0.3333333   0.0000000), wk =   0.0061728
        k(   74) = (   0.5555556   0.5555556   0.0000000), wk =   0.0000000
        k(   75) = (  -0.0555556   0.0000000   0.0000000), wk =   0.0123457
        k(   76) = (   0.1666667   0.2222222   0.0000000), wk =   0.0000000
        k(   77) = (   0.0555556  -0.0555556   0.0000000), wk =   0.0123457
        k(   78) = (   0.2777778   0.1666667   0.0000000), wk =   0.0000000
        k(   79) = (  -0.1111111   0.0000000   0.0000000), wk =   0.0123457
        k(   80) = (   0.1111111   0.2222222   0.0000000), wk =   0.0000000
        k(   81) = (   0.1111111  -0.1111111   0.0000000), wk =   0.0123457
        k(   82) = (   0.3333333   0.1111111   0.0000000), wk =   0.0000000
        k(   83) = (  -0.1666667   0.0000000   0.0000000), wk =   0.0123457
        k(   84) = (   0.0555556   0.2222222   0.0000000), wk =   0.0000000
        k(   85) = (   0.1666667  -0.1666667   0.0000000), wk =   0.0123457
        k(   86) = (   0.3888889   0.0555556   0.0000000), wk =   0.0000000
        k(   87) = (  -0.2222222   0.0000000   0.0000000), wk =   0.0123457
        k(   88) = (   0.0000000   0.2222222   0.0000000), wk =   0.0000000
        k(   89) = (   0.2222222  -0.2222222   0.0000000), wk =   0.0123457
        k(   90) = (   0.4444444  -0.0000000   0.0000000), wk =   0.0000000
        k(   91) = (  -0.2777778   0.0000000   0.0000000), wk =   0.0123457
        k(   92) = (  -0.0555556   0.2222222   0.0000000), wk =   0.0000000
        k(   93) = (   0.2777778  -0.2777778   0.0000000), wk =   0.0123457
        k(   94) = (   0.5000000  -0.0555556   0.0000000), wk =   0.0000000
        k(   95) = (  -0.3333333   0.0000000   0.0000000), wk =   0.0123457
        k(   96) = (  -0.1111111   0.2222222   0.0000000), wk =   0.0000000
        k(   97) = (   0.3333333  -0.3333333   0.0000000), wk =   0.0123457
        k(   98) = (   0.5555556  -0.1111111   0.0000000), wk =   0.0000000
        k(   99) = (  -0.3888889  -0.0000000   0.0000000), wk =   0.0123457
        k(  100) = (  -0.1666667   0.2222222   0.0000000), wk =   0.0000000
        k(  101) = (   0.3888889  -0.3888889   0.0000000), wk =   0.0123457
        k(  102) = (   0.6111111  -0.1666667   0.0000000), wk =   0.0000000
        k(  103) = (  -0.4444444   0.0000000   0.0000000), wk =   0.0123457
        k(  104) = (  -0.2222222   0.2222222   0.0000000), wk =   0.0000000
        k(  105) = (   0.4444444  -0.4444444   0.0000000), wk =   0.0123457
        k(  106) = (   0.6666667  -0.2222222   0.0000000), wk =   0.0000000
        k(  107) = (  -0.5000000   0.5000000   0.0000000), wk =   0.0061728
        k(  108) = (  -0.2777778   0.7222222   0.0000000), wk =   0.0000000
        k(  109) = (  -0.1111111   0.0555556   0.0000000), wk =   0.0123457
        k(  110) = (   0.1111111   0.2777778   0.0000000), wk =   0.0000000
        k(  111) = (  -0.0555556  -0.0555556   0.0000000), wk =   0.0061728
        k(  112) = (   0.1666667   0.1666667   0.0000000), wk =   0.0000000
        k(  113) = (  -0.0555556   0.1111111   0.0000000), wk =   0.0123457
        k(  114) = (   0.1666667   0.3333333   0.0000000), wk =   0.0000000
        k(  115) = (  -0.1666667   0.0555556   0.0000000), wk =   0.0123457
        k(  116) = (   0.0555556   0.2777778   0.0000000), wk =   0.0000000
        k(  117) = (   0.1111111  -0.1666667   0.0000000), wk =   0.0123457
        k(  118) = (   0.3333333   0.0555556   0.0000000), wk =   0.0000000
        k(  119) = (  -0.0555556  -0.1111111   0.0000000), wk =   0.0123457
        k(  120) = (   0.1666667   0.1111111   0.0000000), wk =   0.0000000
        k(  121) = (  -0.0555556   0.1666667   0.0000000), wk =   0.0123457
        k(  122) = (   0.1666667   0.3888889   0.0000000), wk =   0.0000000
        k(  123) = (  -0.1111111   0.1666667   0.0000000), wk =   0.0123457
        k(  124) = (   0.1111111   0.3888889   0.0000000), wk =   0.0000000
        k(  125) = (  -0.2222222   0.0555556   0.0000000), wk =   0.0123457
        k(  126) = (   0.0000000   0.2777778   0.0000000), wk =   0.0000000
        k(  127) = (   0.1666667  -0.2222222   0.0000000), wk =   0.0123457
        k(  128) = (   0.3888889  -0.0000000   0.0000000), wk =   0.0000000
        k(  129) = (  -0.0555556  -0.1666667   0.0000000), wk =   0.0123457
        k(  130) = (   0.1666667   0.0555556   0.0000000), wk =   0.0000000
        k(  131) = (  -0.0555556   0.2222222   0.0000000), wk =   0.0123457
        k(  132) = (   0.1666667   0.4444444   0.0000000), wk =   0.0000000
        k(  133) = (  -0.1666667   0.2222222   0.0000000), wk =   0.0123457
        k(  134) = (   0.0555556   0.4444444   0.0000000), wk =   0.0000000
        k(  135) = (  -0.2777778   0.0555556   0.0000000), wk =   0.0123457
        k(  136) = (  -0.0555556   0.2777778   0.0000000), wk =   0.0000000
        k(  137) = (   0.2222222  -0.2777778   0.0000000), wk =   0.0123457
        k(  138) = (   0.4444444  -0.0555556   0.0000000), wk =   0.0000000
        k(  139) = (  -0.0555556  -0.2222222   0.0000000), wk =   0.0123457
        k(  140) = (   0.1666667  -0.0000000   0.0000000), wk =   0.0000000
        k(  141) = (  -0.0555556   0.2777778   0.0000000), wk =   0.0123457
        k(  142) = (   0.1666667   0.5000000   0.0000000), wk =   0.0000000
        k(  143) = (  -0.2222222   0.2777778   0.0000000), wk =   0.0123457
        k(  144) = (   0.0000000   0.5000000   0.0000000), wk =   0.0000000
        k(  145) = (  -0.3333333   0.0555556   0.0000000), wk =   0.0123457
        k(  146) = (  -0.1111111   0.2777778   0.0000000), wk =   0.0000000
        k(  147) = (   0.2777778  -0.3333333   0.0000000), wk =   0.0123457
        k(  148) = (   0.5000000  -0.1111111   0.0000000), wk =   0.0000000
        k(  149) = (  -0.0555556  -0.2777778   0.0000000), wk =   0.0123457
        k(  150) = (   0.1666667  -0.0555556   0.0000000), wk =   0.0000000
        k(  151) = (  -0.0555556   0.3333333   0.0000000), wk =   0.0123457
        k(  152) = (   0.1666667   0.5555556   0.0000000), wk =   0.0000000
        k(  153) = (  -0.2777778   0.3333333   0.0000000), wk =   0.0123457
        k(  154) = (  -0.0555556   0.5555556   0.0000000), wk =   0.0000000
        k(  155) = (  -0.3888889   0.0555556   0.0000000), wk =   0.0123457
        k(  156) = (  -0.1666667   0.2777778   0.0000000), wk =   0.0000000
        k(  157) = (   0.3333333  -0.3888889   0.0000000), wk =   0.0123457
        k(  158) = (   0.5555556  -0.1666667   0.0000000), wk =   0.0000000
        k(  159) = (  -0.0555556  -0.3333333   0.0000000), wk =   0.0123457
        k(  160) = (   0.1666667  -0.1111111   0.0000000), wk =   0.0000000
        k(  161) = (  -0.0555556   0.3888889   0.0000000), wk =   0.0123457
        k(  162) = (   0.1666667   0.6111111   0.0000000), wk =   0.0000000
        k(  163) = (  -0.3333333   0.3888889   0.0000000), wk =   0.0123457
        k(  164) = (  -0.1111111   0.6111111   0.0000000), wk =   0.0000000
        k(  165) = (  -0.4444444   0.0555556   0.0000000), wk =   0.0123457
        k(  166) = (  -0.2222222   0.2777778   0.0000000), wk =   0.0000000
        k(  167) = (   0.3888889  -0.4444444   0.0000000), wk =   0.0123457
        k(  168) = (   0.6111111  -0.2222222   0.0000000), wk =   0.0000000
        k(  169) = (  -0.0555556  -0.3888889   0.0000000), wk =   0.0123457
        k(  170) = (   0.1666667  -0.1666667   0.0000000), wk =   0.0000000
        k(  171) = (  -0.0555556   0.4444444   0.0000000), wk =   0.0123457
        k(  172) = (   0.1666667   0.6666667   0.0000000), wk =   0.0000000
        k(  173) = (  -0.3888889   0.4444444   0.0000000), wk =   0.0123457
        k(  174) = (  -0.1666667   0.6666667   0.0000000), wk =   0.0000000
        k(  175) = (  -0.5000000   0.0555556   0.0000000), wk =   0.0123457
        k(  176) = (  -0.2777778   0.2777778   0.0000000), wk =   0.0000000
        k(  177) = (   0.4444444  -0.5000000   0.0000000), wk =   0.0123457
        k(  178) = (   0.6666667  -0.2777778   0.0000000), wk =   0.0000000
        k(  179) = (  -0.0555556  -0.4444444   0.0000000), wk =   0.0123457
        k(  180) = (   0.1666667  -0.2222222   0.0000000), wk =   0.0000000
        k(  181) = (  -0.0555556   0.5000000   0.0000000), wk =   0.0123457
        k(  182) = (   0.1666667   0.7222222   0.0000000), wk =   0.0000000
        k(  183) = (  -0.4444444   0.5000000   0.0000000), wk =   0.0123457
        k(  184) = (  -0.2222222   0.7222222   0.0000000), wk =   0.0000000
        k(  185) = (  -0.2222222   0.1111111   0.0000000), wk =   0.0123457
        k(  186) = (   0.0000000   0.3333333   0.0000000), wk =   0.0000000
        k(  187) = (  -0.1111111  -0.1111111   0.0000000), wk =   0.0061728
        k(  188) = (   0.1111111   0.1111111   0.0000000), wk =   0.0000000
        k(  189) = (  -0.1111111   0.2222222   0.0000000), wk =   0.0123457
        k(  190) = (   0.1111111   0.4444444   0.0000000), wk =   0.0000000
        k(  191) = (  -0.2777778   0.1111111   0.0000000), wk =   0.0123457
        k(  192) = (  -0.0555556   0.3333333   0.0000000), wk =   0.0000000
        k(  193) = (   0.1666667  -0.2777778   0.0000000), wk =   0.0123457
        k(  194) = (   0.3888889  -0.0555556   0.0000000), wk =   0.0000000
        k(  195) = (  -0.1111111  -0.1666667   0.0000000), wk =   0.0123457
        k(  196) = (   0.1111111   0.0555556   0.0000000), wk =   0.0000000
        k(  197) = (  -0.1111111   0.2777778   0.0000000), wk =   0.0123457
        k(  198) = (   0.1111111   0.5000000   0.0000000), wk =   0.0000000
        k(  199) = (  -0.1666667   0.2777778   0.0000000), wk =   0.0123457
        k(  200) = (   0.0555556   0.5000000   0.0000000), wk =   0.0000000
        k(  201) = (  -0.3333333   0.1111111   0.0000000), wk =   0.0123457
        k(  202) = (  -0.1111111   0.3333333   0.0000000), wk =   0.0000000
        k(  203) = (   0.2222222  -0.3333333   0.0000000), wk =   0.0123457
        k(  204) = (   0.4444444  -0.1111111   0.0000000), wk =   0.0000000
        k(  205) = (  -0.1111111  -0.2222222   0.0000000), wk =   0.0123457
        k(  206) = (   0.1111111  -0.0000000   0.0000000), wk =   0.0000000
        k(  207) = (  -0.1111111   0.3333333   0.0000000), wk =   0.0123457
        k(  208) = (   0.1111111   0.5555556   0.0000000), wk =   0.0000000
        k(  209) = (  -0.2222222   0.3333333   0.0000000), wk =   0.0123457
        k(  210) = (   0.0000000   0.5555556   0.0000000), wk =   0.0000000
        k(  211) = (  -0.3888889   0.1111111   0.0000000), wk =   0.0123457
        k(  212) = (  -0.1666667   0.3333333   0.0000000), wk =   0.0000000
        k(  213) = (   0.2777778  -0.3888889   0.0000000), wk =   0.0123457
        k(  214) = (   0.5000000  -0.1666667   0.0000000), wk =   0.0000000
        k(  215) = (  -0.1111111  -0.2777778   0.0000000), wk =   0.0123457
        k(  216) = (   0.1111111  -0.0555556   0.0000000), wk =   0.0000000
        k(  217) = (  -0.1111111   0.3888889   0.0000000), wk =   0.0123457
        k(  218) = (   0.1111111   0.6111111   0.0000000), wk =   0.0000000
        k(  219) = (  -0.2777778   0.3888889   0.0000000), wk =   0.0123457
        k(  220) = (  -0.0555556   0.6111111   0.0000000), wk =   0.0000000
        k(  221) = (  -0.4444444   0.1111111   0.0000000), wk =   0.0123457
        k(  222) = (  -0.2222222   0.3333333   0.0000000), wk =   0.0000000
        k(  223) = (   0.3333333  -0.4444444   0.0000000), wk =   0.0123457
        k(  224) = (   0.5555556  -0.2222222   0.0000000), wk =   0.0000000
        k(  225) = (  -0.1111111  -0.3333333   0.0000000), wk =   0.0123457
        k(  226) = (   0.1111111  -0.1111111   0.0000000), wk =   0.0000000
        k(  227) = (  -0.1111111   0.4444444   0.0000000), wk =   0.0123457
        k(  228) = (   0.1111111   0.6666667   0.0000000), wk =   0.0000000
        k(  229) = (  -0.3333333   0.4444444   0.0000000), wk =   0.0123457
        k(  230) = (  -0.1111111   0.6666667   0.0000000), wk =   0.0000000
        k(  231) = (  -0.5000000   0.1111111   0.0000000), wk =   0.0123457
        k(  232) = (  -0.2777778   0.3333333   0.0000000), wk =   0.0000000
        k(  233) = (   0.3888889  -0.5000000   0.0000000), wk =   0.0123457
        k(  234) = (   0.6111111  -0.2777778   0.0000000), wk =   0.0000000
        k(  235) = (  -0.1111111  -0.3888889   0.0000000), wk =   0.0123457
        k(  236) = (   0.1111111  -0.1666667   0.0000000), wk =   0.0000000
        k(  237) = (  -0.1111111   0.5000000   0.0000000), wk =   0.0123457
        k(  238) = (   0.1111111   0.7222222   0.0000000), wk =   0.0000000
        k(  239) = (  -0.3888889   0.5000000   0.0000000), wk =   0.0123457
        k(  240) = (  -0.1666667   0.7222222   0.0000000), wk =   0.0000000
        k(  241) = (   0.4444444  -0.5555556   0.0000000), wk =   0.0061728
        k(  242) = (   0.6666667  -0.3333333   0.0000000), wk =   0.0000000
        k(  243) = (  -0.1111111  -0.4444444   0.0000000), wk =   0.0123457
        k(  244) = (   0.1111111  -0.2222222   0.0000000), wk =   0.0000000
        k(  245) = (  -0.4444444   0.5555556   0.0000000), wk =   0.0061728
        k(  246) = (  -0.2222222   0.7777778   0.0000000), wk =   0.0000000
        k(  247) = (  -0.3333333   0.1666667   0.0000000), wk =   0.0123457
        k(  248) = (  -0.1111111   0.3888889   0.0000000), wk =   0.0000000
        k(  249) = (  -0.1666667  -0.1666667   0.0000000), wk =   0.0061728
        k(  250) = (   0.0555556   0.0555556   0.0000000), wk =   0.0000000
        k(  251) = (  -0.1666667   0.3333333   0.0000000), wk =   0.0123457
        k(  252) = (   0.0555556   0.5555556   0.0000000), wk =   0.0000000
        k(  253) = (  -0.3888889   0.1666667   0.0000000), wk =   0.0123457
        k(  254) = (  -0.1666667   0.3888889   0.0000000), wk =   0.0000000
        k(  255) = (   0.2222222  -0.3888889   0.0000000), wk =   0.0123457
        k(  256) = (   0.4444444  -0.1666667   0.0000000), wk =   0.0000000
        k(  257) = (  -0.1666667  -0.2222222   0.0000000), wk =   0.0123457
        k(  258) = (   0.0555556  -0.0000000   0.0000000), wk =   0.0000000
        k(  259) = (  -0.1666667   0.3888889   0.0000000), wk =   0.0123457
        k(  260) = (   0.0555556   0.6111111   0.0000000), wk =   0.0000000
        k(  261) = (  -0.2222222   0.3888889   0.0000000), wk =   0.0123457
        k(  262) = (  -0.0000000   0.6111111   0.0000000), wk =   0.0000000
        k(  263) = (  -0.4444444   0.1666667   0.0000000), wk =   0.0123457
        k(  264) = (  -0.2222222   0.3888889   0.0000000), wk =   0.0000000
        k(  265) = (   0.2777778  -0.4444444   0.0000000), wk =   0.0123457
        k(  266) = (   0.5000000  -0.2222222   0.0000000), wk =   0.0000000
        k(  267) = (  -0.1666667  -0.2777778   0.0000000), wk =   0.0123457
        k(  268) = (   0.0555556  -0.0555556   0.0000000), wk =   0.0000000
        k(  269) = (  -0.1666667   0.4444444   0.0000000), wk =   0.0123457
        k(  270) = (   0.0555556   0.6666667   0.0000000), wk =   0.0000000
        k(  271) = (  -0.2777778   0.4444444   0.0000000), wk =   0.0123457
        k(  272) = (  -0.0555556   0.6666667   0.0000000), wk =   0.0000000
        k(  273) = (  -0.5000000   0.1666667   0.0000000), wk =   0.0123457
        k(  274) = (  -0.2777778   0.3888889   0.0000000), wk =   0.0000000
        k(  275) = (   0.3333333  -0.5000000   0.0000000), wk =   0.0123457
        k(  276) = (   0.5555556  -0.2777778   0.0000000), wk =   0.0000000
        k(  277) = (  -0.1666667  -0.3333333   0.0000000), wk =   0.0123457
        k(  278) = (   0.0555556  -0.1111111   0.0000000), wk =   0.0000000
        k(  279) = (  -0.1666667   0.5000000   0.0000000), wk =   0.0123457
        k(  280) = (   0.0555556   0.7222222   0.0000000), wk =   0.0000000
        k(  281) = (  -0.3333333   0.5000000   0.0000000), wk =   0.0123457
        k(  282) = (  -0.1111111   0.7222222   0.0000000), wk =   0.0000000
        k(  283) = (  -0.5555556   0.1666667   0.0000000), wk =   0.0123457
        k(  284) = (  -0.3333333   0.3888889   0.0000000), wk =   0.0000000
        k(  285) = (   0.3888889  -0.5555556   0.0000000), wk =   0.0123457
        k(  286) = (   0.6111111  -0.3333333   0.0000000), wk =   0.0000000
        k(  287) = (  -0.1666667  -0.3888889   0.0000000), wk =   0.0123457
        k(  288) = (   0.0555556  -0.1666667   0.0000000), wk =   0.0000000
        k(  289) = (  -0.1666667   0.5555556   0.0000000), wk =   0.0123457
        k(  290) = (   0.0555556   0.7777778   0.0000000), wk =   0.0000000
        k(  291) = (  -0.3888889   0.5555556   0.0000000), wk =   0.0123457
        k(  292) = (  -0.1666667   0.7777778   0.0000000), wk =   0.0000000
        k(  293) = (  -0.4444444   0.2222222   0.0000000), wk =   0.0123457
        k(  294) = (  -0.2222222   0.4444444   0.0000000), wk =   0.0000000
        k(  295) = (  -0.2222222  -0.2222222   0.0000000), wk =   0.0061728
        k(  296) = (   0.0000000  -0.0000000   0.0000000), wk =   0.0000000
        k(  297) = (  -0.2222222   0.4444444   0.0000000), wk =   0.0123457
        k(  298) = (   0.0000000   0.6666667   0.0000000), wk =   0.0000000
        k(  299) = (  -0.5000000   0.2222222   0.0000000), wk =   0.0123457
        k(  300) = (  -0.2777778   0.4444444   0.0000000), wk =   0.0000000
        k(  301) = (   0.2777778  -0.5000000   0.0000000), wk =   0.0123457
        k(  302) = (   0.5000000  -0.2777778   0.0000000), wk =   0.0000000
        k(  303) = (  -0.2222222  -0.2777778   0.0000000), wk =   0.0123457
        k(  304) = (   0.0000000  -0.0555556   0.0000000), wk =   0.0000000
        k(  305) = (  -0.2222222   0.5000000   0.0000000), wk =   0.0123457
        k(  306) = (   0.0000000   0.7222222   0.0000000), wk =   0.0000000
        k(  307) = (  -0.2777778   0.5000000   0.0000000), wk =   0.0123457
        k(  308) = (  -0.0555556   0.7222222   0.0000000), wk =   0.0000000
        k(  309) = (  -0.5555556   0.2222222   0.0000000), wk =   0.0123457
        k(  310) = (  -0.3333333   0.4444444   0.0000000), wk =   0.0000000
        k(  311) = (   0.3333333  -0.5555556   0.0000000), wk =   0.0123457
        k(  312) = (   0.5555556  -0.3333333   0.0000000), wk =   0.0000000
        k(  313) = (  -0.2222222  -0.3333333   0.0000000), wk =   0.0123457
        k(  314) = (   0.0000000  -0.1111111   0.0000000), wk =   0.0000000
        k(  315) = (  -0.2222222   0.5555556   0.0000000), wk =   0.0123457
        k(  316) = (   0.0000000   0.7777778   0.0000000), wk =   0.0000000
        k(  317) = (  -0.3333333   0.5555556   0.0000000), wk =   0.0123457
        k(  318) = (  -0.1111111   0.7777778   0.0000000), wk =   0.0000000
        k(  319) = (   0.3888889  -0.6111111   0.0000000), wk =   0.0061728
        k(  320) = (   0.6111111  -0.3888889   0.0000000), wk =   0.0000000
        k(  321) = (  -0.2222222  -0.3888889   0.0000000), wk =   0.0123457
        k(  322) = (   0.0000000  -0.1666667   0.0000000), wk =   0.0000000
        k(  323) = (  -0.3888889   0.6111111   0.0000000), wk =   0.0061728
        k(  324) = (  -0.1666667   0.8333333   0.0000000), wk =   0.0000000
        k(  325) = (  -0.5555556   0.2777778   0.0000000), wk =   0.0123457
        k(  326) = (  -0.3333333   0.5000000   0.0000000), wk =   0.0000000
        k(  327) = (  -0.2777778  -0.2777778   0.0000000), wk =   0.0061728
        k(  328) = (  -0.0555556  -0.0555556   0.0000000), wk =   0.0000000
        k(  329) = (  -0.2777778   0.5555556   0.0000000), wk =   0.0123457
        k(  330) = (  -0.0555556   0.7777778   0.0000000), wk =   0.0000000
        k(  331) = (  -0.6111111   0.2777778   0.0000000), wk =   0.0123457
        k(  332) = (  -0.3888889   0.5000000   0.0000000), wk =   0.0000000
        k(  333) = (   0.3333333  -0.6111111   0.0000000), wk =   0.0123457
        k(  334) = (   0.5555556  -0.3888889   0.0000000), wk =   0.0000000
        k(  335) = (  -0.2777778  -0.3333333   0.0000000), wk =   0.0123457
        k(  336) = (  -0.0555556  -0.1111111   0.0000000), wk =   0.0000000
        k(  337) = (  -0.2777778   0.6111111   0.0000000), wk =   0.0123457
        k(  338) = (  -0.0555556   0.8333333   0.0000000), wk =   0.0000000
        k(  339) = (  -0.3333333   0.6111111   0.0000000), wk =   0.0123457
        k(  340) = (  -0.1111111   0.8333333   0.0000000), wk =   0.0000000
        k(  341) = (  -0.3333333  -0.3333333   0.0000000), wk =   0.0061728
        k(  342) = (  -0.1111111  -0.1111111   0.0000000), wk =   0.0000000

     Dense  grid:  1108055 G-vectors     FFT dimensions: (  72,  72, 500)

     Dynamical RAM for                 wfc:       3.96 MB

     Dynamical RAM for     wfc (w. buffer):       3.96 MB

     Dynamical RAM for           str. fact:       4.23 MB

     Dynamical RAM for           local pot:       0.53 MB

     Dynamical RAM for          nlocal pot:       8.46 MB

     Dynamical RAM for                qrad:       2.28 MB

     Dynamical RAM for          rho,v,vnew:      13.82 MB

     Dynamical RAM for           G-vectors:       8.98 MB

     Dynamical RAM for          h,s,v(r/c):       0.16 MB

     Dynamical RAM for          <psi|beta>:       0.01 MB

     Dynamical RAM for                 psi:      15.86 MB

     Dynamical RAM for                hpsi:      15.86 MB

     Dynamical RAM for                spsi:      15.86 MB

     Dynamical RAM for      wfcinit/wfcrot:       8.46 MB

     Dynamical RAM for           addusdens:      95.10 MB

     Estimated static dynamical RAM per process >      61.06 MB

     Estimated max dynamical RAM per process >     156.16 MB

     Estimated total dynamical RAM >       1.22 GB
 ----2D----2D----2D----2D----2D----2D----2D----2D----2D----2D----2D----2D
  The code is running with the 2D cutoff
  Please refer to:
  Sohier, T., Calandra, M., & Mauri, F. (2017), 
  Density functional perturbation theory for gated two-dimensional heterostructures:
  Theoretical developments and application to flexural phonons in graphene.
  Physical Review B, 96(7), 75448. https://doi.org/10.1103/PhysRevB.96.075448
 ----2D----2D----2D----2D----2D----2D----2D----2D----2D----2D----2D----2D

     The potential is recalculated from file :
     /home/ext_chineason_graduate_utm_my/fgc/tmp/10.1/_ph0/fgc.save/charge-density


     negative rho (up, down):  5.457E-06 0.000E+00
     Starting wfcs are   16 atomic wfcs

     Band Structure Calculation
     Davidson diagonalization with overlap

     Computing kpt #:     1
     total cpu time spent up to now is       12.2 secs

     Computing kpt #:     2
     total cpu time spent up to now is       23.6 secs

     Computing kpt #:     3
     total cpu time spent up to now is       38.8 secs

     Computing kpt #:     4
     total cpu time spent up to now is       52.5 secs

     Computing kpt #:     5
     total cpu time spent up to now is       68.1 secs

     Computing kpt #:     6
     total cpu time spent up to now is       78.9 secs

     Computing kpt #:     7
     total cpu time spent up to now is       88.0 secs

     Computing kpt #:     8
     total cpu time spent up to now is       99.3 secs

     Computing kpt #:     9
     total cpu time spent up to now is      111.1 secs

     Computing kpt #:    10
     total cpu time spent up to now is      125.1 secs

     Computing kpt #:    11
     total cpu time spent up to now is      137.6 secs

     Computing kpt #:    12
     total cpu time spent up to now is      152.1 secs

     Computing kpt #:    13
     total cpu time spent up to now is      165.2 secs

     Computing kpt #:    14
     total cpu time spent up to now is      180.3 secs

     Computing kpt #:    15
     total cpu time spent up to now is      190.5 secs

     Computing kpt #:    16
     total cpu time spent up to now is      207.2 secs

     Computing kpt #:    17
     total cpu time spent up to now is      217.1 secs

     Computing kpt #:    18
     total cpu time spent up to now is      235.9 secs

     Computing kpt #:    19
     total cpu time spent up to now is      245.4 secs

     Computing kpt #:    20
     total cpu time spent up to now is      261.7 secs

     Computing kpt #:    21
     total cpu time spent up to now is      284.7 secs

     Computing kpt #:    22
     total cpu time spent up to now is      300.6 secs

     Computing kpt #:    23
     total cpu time spent up to now is      315.8 secs

     Computing kpt #:    24
     total cpu time spent up to now is      331.2 secs

     Computing kpt #:    25
     total cpu time spent up to now is      346.1 secs

     Computing kpt #:    26
     total cpu time spent up to now is      359.0 secs

     Computing kpt #:    27
     total cpu time spent up to now is      378.6 secs

     Computing kpt #:    28
     total cpu time spent up to now is      393.1 secs

     Computing kpt #:    29
     total cpu time spent up to now is      410.1 secs

     Computing kpt #:    30
     total cpu time spent up to now is      428.0 secs

     Computing kpt #:    31
     total cpu time spent up to now is      451.3 secs

     Computing kpt #:    32
     total cpu time spent up to now is      466.4 secs

     Computing kpt #:    33
     total cpu time spent up to now is      486.5 secs

     Computing kpt #:    34
     total cpu time spent up to now is      505.0 secs

     Computing kpt #:    35
     total cpu time spent up to now is      520.9 secs

     Computing kpt #:    36
     total cpu time spent up to now is      539.9 secs

     Computing kpt #:    37
     total cpu time spent up to now is      555.0 secs

     Computing kpt #:    38
     total cpu time spent up to now is      565.3 secs

     Computing kpt #:    39
     total cpu time spent up to now is      578.7 secs

     Computing kpt #:    40
     total cpu time spent up to now is      593.7 secs

     Computing kpt #:    41
     total cpu time spent up to now is      612.0 secs

     Computing kpt #:    42
     total cpu time spent up to now is      627.3 secs

     Computing kpt #:    43
     total cpu time spent up to now is      648.1 secs

     Computing kpt #:    44
     total cpu time spent up to now is      664.1 secs

     Computing kpt #:    45
     total cpu time spent up to now is      683.5 secs

     Computing kpt #:    46
     total cpu time spent up to now is      701.2 secs

     Computing kpt #:    47
     total cpu time spent up to now is      718.0 secs

     Computing kpt #:    48
     total cpu time spent up to now is      739.9 secs

     Computing kpt #:    49
     total cpu time spent up to now is      754.7 secs

     Computing kpt #:    50
     total cpu time spent up to now is      772.6 secs

     Computing kpt #:    51
     total cpu time spent up to now is      789.4 secs

     Computing kpt #:    52
     total cpu time spent up to now is      804.9 secs

     Computing kpt #:    53
     total cpu time spent up to now is      823.2 secs

     Computing kpt #:    54
     total cpu time spent up to now is      838.6 secs

     Computing kpt #:    55
     total cpu time spent up to now is      849.3 secs

     Computing kpt #:    56
     total cpu time spent up to now is      862.0 secs

     Computing kpt #:    57
     total cpu time spent up to now is      877.9 secs

     Computing kpt #:    58
     total cpu time spent up to now is      897.0 secs

     Computing kpt #:    59
     total cpu time spent up to now is      912.8 secs

     Computing kpt #:    60
     total cpu time spent up to now is      920.3 secs

     Computing kpt #:    61
     total cpu time spent up to now is      935.2 secs

     Computing kpt #:    62
     total cpu time spent up to now is      950.0 secs

     Computing kpt #:    63
     total cpu time spent up to now is      966.3 secs

     Computing kpt #:    64
     total cpu time spent up to now is      983.7 secs

     Computing kpt #:    65
     total cpu time spent up to now is      997.9 secs

     Computing kpt #:    66
     total cpu time spent up to now is     1008.0 secs

     Computing kpt #:    67
     total cpu time spent up to now is     1022.1 secs

     Computing kpt #:    68
     total cpu time spent up to now is     1042.7 secs

     Computing kpt #:    69
     total cpu time spent up to now is     1058.0 secs

     Computing kpt #:    70
     total cpu time spent up to now is     1068.0 secs

     Computing kpt #:    71
     total cpu time spent up to now is     1082.0 secs

     Computing kpt #:    72
     total cpu time spent up to now is     1096.7 secs

     Computing kpt #:    73
     total cpu time spent up to now is     1108.6 secs

     Computing kpt #:    74
     total cpu time spent up to now is     1124.1 secs

     Computing kpt #:    75
     total cpu time spent up to now is     1140.7 secs

     Computing kpt #:    76
     total cpu time spent up to now is     1156.9 secs

     Computing kpt #:    77
     total cpu time spent up to now is     1172.2 secs

     Computing kpt #:    78
     total cpu time spent up to now is     1186.9 secs

     Computing kpt #:    79
     total cpu time spent up to now is     1207.2 secs

     Computing kpt #:    80
     total cpu time spent up to now is     1226.3 secs

     Computing kpt #:    81
     total cpu time spent up to now is     1247.6 secs

     Computing kpt #:    82
     total cpu time spent up to now is     1265.9 secs

     Computing kpt #:    83
     total cpu time spent up to now is     1279.7 secs

     Computing kpt #:    84
     total cpu time spent up to now is     1298.5 secs

     Computing kpt #:    85
     total cpu time spent up to now is     1310.1 secs

     Computing kpt #:    86
     total cpu time spent up to now is     1336.0 secs

     Computing kpt #:    87
     total cpu time spent up to now is     1351.5 secs

     Computing kpt #:    88
     total cpu time spent up to now is     1368.2 secs

     Computing kpt #:    89
     total cpu time spent up to now is     1386.3 secs

     Computing kpt #:    90
     total cpu time spent up to now is     1396.4 secs

     Computing kpt #:    91
     total cpu time spent up to now is     1413.1 secs

     Computing kpt #:    92
     total cpu time spent up to now is     1424.6 secs

     Computing kpt #:    93
     total cpu time spent up to now is     1437.9 secs

     Computing kpt #:    94
     total cpu time spent up to now is     1452.7 secs

     Computing kpt #:    95
     total cpu time spent up to now is     1465.5 secs

     Computing kpt #:    96
     total cpu time spent up to now is     1478.8 secs

     Computing kpt #:    97
     total cpu time spent up to now is     1493.3 secs

     Computing kpt #:    98
     total cpu time spent up to now is     1506.9 secs

     Computing kpt #:    99
     total cpu time spent up to now is     1513.8 secs

     Computing kpt #:   100
     total cpu time spent up to now is     1526.0 secs

     Computing kpt #:   101
     total cpu time spent up to now is     1532.7 secs

     Computing kpt #:   102
     total cpu time spent up to now is     1545.6 secs

     Computing kpt #:   103
     total cpu time spent up to now is     1554.1 secs

     Computing kpt #:   104
     total cpu time spent up to now is     1565.8 secs

     Computing kpt #:   105
     total cpu time spent up to now is     1572.8 secs

     Computing kpt #:   106
     total cpu time spent up to now is     1584.2 secs

     Computing kpt #:   107
     total cpu time spent up to now is     1591.4 secs

     Computing kpt #:   108
     total cpu time spent up to now is     1603.0 secs

     Computing kpt #:   109
     total cpu time spent up to now is     1621.5 secs

     Computing kpt #:   110
     total cpu time spent up to now is     1637.6 secs

     Computing kpt #:   111
     total cpu time spent up to now is     1657.6 secs

     Computing kpt #:   112
     total cpu time spent up to now is     1670.7 secs

     Computing kpt #:   113
     total cpu time spent up to now is     1689.1 secs

     Computing kpt #:   114
     total cpu time spent up to now is     1701.9 secs

     Computing kpt #:   115
     total cpu time spent up to now is     1713.1 secs

     Computing kpt #:   116
     total cpu time spent up to now is     1727.7 secs

     Computing kpt #:   117
     total cpu time spent up to now is     1737.4 secs

     Computing kpt #:   118
     total cpu time spent up to now is     1754.2 secs

     Computing kpt #:   119
     total cpu time spent up to now is     1763.4 secs

     Computing kpt #:   120
     total cpu time spent up to now is     1775.7 secs

     Computing kpt #:   121
     total cpu time spent up to now is     1785.2 secs

     Computing kpt #:   122
     total cpu time spent up to now is     1796.7 secs

     Computing kpt #:   123
     total cpu time spent up to now is     1806.8 secs

     Computing kpt #:   124
     total cpu time spent up to now is     1820.8 secs

     Computing kpt #:   125
     total cpu time spent up to now is     1834.7 secs

     Computing kpt #:   126
     total cpu time spent up to now is     1847.9 secs

     Computing kpt #:   127
     total cpu time spent up to now is     1860.1 secs

     Computing kpt #:   128
     total cpu time spent up to now is     1866.8 secs

     Computing kpt #:   129
     total cpu time spent up to now is     1880.1 secs

     Computing kpt #:   130
     total cpu time spent up to now is     1893.9 secs

     Computing kpt #:   131
     total cpu time spent up to now is     1905.9 secs

     Computing kpt #:   132
     total cpu time spent up to now is     1918.5 secs

     Computing kpt #:   133
     total cpu time spent up to now is     1931.4 secs

     Computing kpt #:   134
     total cpu time spent up to now is     1944.6 secs

     Computing kpt #:   135
     total cpu time spent up to now is     1962.2 secs

     Computing kpt #:   136
     total cpu time spent up to now is     1977.9 secs

     Computing kpt #:   137
     total cpu time spent up to now is     1994.1 secs

     Computing kpt #:   138
     total cpu time spent up to now is     2011.5 secs

     Computing kpt #:   139
     total cpu time spent up to now is     2025.0 secs

     Computing kpt #:   140
     total cpu time spent up to now is     2035.9 secs

     Computing kpt #:   141
     total cpu time spent up to now is     2049.8 secs

     Computing kpt #:   142
     total cpu time spent up to now is     2065.1 secs

     Computing kpt #:   143
     total cpu time spent up to now is     2081.5 secs

     Computing kpt #:   144
     total cpu time spent up to now is     2091.4 secs

     Computing kpt #:   145
     total cpu time spent up to now is     2108.2 secs

     Computing kpt #:   146
     total cpu time spent up to now is     2124.9 secs

     Computing kpt #:   147
[...]
        k(  311) = (   0.3333333  -0.5555556   0.0000000), wk =   0.0123457
        k(  312) = (   0.5555556  -0.3333333   0.0000000), wk =   0.0000000
        k(  313) = (  -0.2222222  -0.3333333   0.0000000), wk =   0.0123457
        k(  314) = (   0.0000000  -0.1111111   0.0000000), wk =   0.0000000
        k(  315) = (  -0.2222222   0.5555556   0.0000000), wk =   0.0123457
        k(  316) = (   0.0000000   0.7777778   0.0000000), wk =   0.0000000
        k(  317) = (  -0.3333333   0.5555556   0.0000000), wk =   0.0123457
        k(  318) = (  -0.1111111   0.7777778   0.0000000), wk =   0.0000000
        k(  319) = (   0.3888889  -0.6111111   0.0000000), wk =   0.0061728
        k(  320) = (   0.6111111  -0.3888889   0.0000000), wk =   0.0000000
        k(  321) = (  -0.2222222  -0.3888889   0.0000000), wk =   0.0123457
        k(  322) = (   0.0000000  -0.1666667   0.0000000), wk =   0.0000000
        k(  323) = (  -0.3888889   0.6111111   0.0000000), wk =   0.0061728
        k(  324) = (  -0.1666667   0.8333333   0.0000000), wk =   0.0000000
        k(  325) = (  -0.5555556   0.2777778   0.0000000), wk =   0.0123457
        k(  326) = (  -0.3333333   0.5000000   0.0000000), wk =   0.0000000
        k(  327) = (  -0.2777778  -0.2777778   0.0000000), wk =   0.0061728
        k(  328) = (  -0.0555556  -0.0555556   0.0000000), wk =   0.0000000
        k(  329) = (  -0.2777778   0.5555556   0.0000000), wk =   0.0123457
        k(  330) = (  -0.0555556   0.7777778   0.0000000), wk =   0.0000000
        k(  331) = (  -0.6111111   0.2777778   0.0000000), wk =   0.0123457
        k(  332) = (  -0.3888889   0.5000000   0.0000000), wk =   0.0000000
        k(  333) = (   0.3333333  -0.6111111   0.0000000), wk =   0.0123457
        k(  334) = (   0.5555556  -0.3888889   0.0000000), wk =   0.0000000
        k(  335) = (  -0.2777778  -0.3333333   0.0000000), wk =   0.0123457
        k(  336) = (  -0.0555556  -0.1111111   0.0000000), wk =   0.0000000
        k(  337) = (  -0.2777778   0.6111111   0.0000000), wk =   0.0123457
        k(  338) = (  -0.0555556   0.8333333   0.0000000), wk =   0.0000000
        k(  339) = (  -0.3333333   0.6111111   0.0000000), wk =   0.0123457
        k(  340) = (  -0.1111111   0.8333333   0.0000000), wk =   0.0000000
        k(  341) = (  -0.3333333  -0.3333333   0.0000000), wk =   0.0061728
        k(  342) = (  -0.1111111  -0.1111111   0.0000000), wk =   0.0000000

     PseudoPot. # 1 for C  read from file:
     ../pseudo/c_pbe_v1.2.uspp.F.UPF
     MD5 check sum: d1aef80898a10debaa0f26306b886e00
     Pseudo is Ultrasoft + core correction, Zval =  4.0
     Generated by new atomic code, or converted to UPF format
     Using radial grid of  721 points,  4 beta functions with: 
                l(1) =   0
                l(2) =   0
                l(3) =   1
                l(4) =   1
     Q(r) pseudized with  8 coefficients,  rinner =    1.100   1.100   1.100


     PseudoPot. # 2 for F  read from file:
     ../pseudo/f_pbe_v1.4.uspp.F.UPF
     MD5 check sum: 4c38b6a325caf53ec0e86aed9459de46
     Pseudo is Ultrasoft, Zval =  7.0
     Generated by new atomic code, or converted to UPF format
     Using radial grid of  799 points,  4 beta functions with: 
                l(1) =   0
                l(2) =   0
                l(3) =   1
                l(4) =   1
     Q(r) pseudized with  8 coefficients,  rinner =    0.950   0.950   0.950


     point group C_2  (2)   
     there are  2 classes
     the character table:

       E     C2   
A      1.00  1.00
B      1.00 -1.00

     the symmetry operations in each class and the name of the first element:

     E        1
          identity                                               
     C2       2
          180 deg rotation - cryst. axis [1,1,0]                 


     Atomic displacements:
     There are   12 irreducible representations

     Representation     1      1 modes -  To be done
     Irreps are as follows:

                     mode #   1
                     (  -0.00000  -0.00000   ) 
                     (  -0.00000  -0.00000   ) 
                     (  -0.00000  -0.00000   ) 
                     (  -0.00000  -0.00000   ) 
                     (  -0.00000  -0.00000   ) 
                     (  -0.00000  -0.00000   ) 
                     (  -0.10641  -0.00000   ) 
                     (  -0.18290   0.67259   ) 
                     (  -0.02392   0.04778   ) 
                     (   0.55536   0.20474   ) 
                     (   0.29930   0.23921   ) 
                     (  -0.04290  -0.03186   ) 

     Representation     2      1 modes -  Not done in this run
     Irreps are as follows:

                     mode #   2
                     (  -0.34616   0.00000   ) 
                     (   0.60030   0.12160   ) 
                     (  -0.05888  -0.03952   ) 
                     (   0.22404  -0.66414   ) 
                     (   0.05994   0.01020   ) 
                     (   0.04914  -0.05112   ) 
                     (   0.00000  -0.00000   ) 
                     (   0.00000  -0.00000   ) 
                     (   0.00000  -0.00000   ) 
                     (   0.00000  -0.00000   ) 
                     (   0.00000  -0.00000   ) 
                     (   0.00000  -0.00000   ) 

     Representation     3      1 modes -  Not done in this run
     Irreps are as follows:

                     mode #   3
                     (  -0.08724  -0.00000   ) 
                     (   0.03254  -0.01629   ) 
                     (   0.66713   0.21448   ) 
                     (  -0.00142  -0.07316   ) 
                     (  -0.01831   0.05697   ) 
                     (  -0.32706   0.61975   ) 
                     (   0.00000  -0.00000   ) 
                     (   0.00000  -0.00000   ) 
                     (   0.00000  -0.00000   ) 
                     (   0.00000  -0.00000   ) 
                     (   0.00000  -0.00000   ) 
                     (   0.00000  -0.00000   ) 

     Representation     4      1 modes -  Not done in this run
     Irreps are as follows:

                     mode #   4
                     (  -0.00000  -0.00000   ) 
                     (  -0.00000  -0.00000   ) 
                     (  -0.00000  -0.00000   ) 
                     (  -0.00000  -0.00000   ) 
                     (  -0.00000  -0.00000   ) 
                     (  -0.00000  -0.00000   ) 
                     (  -0.09220  -0.00000   ) 
                     (   0.03644   0.02889   ) 
                     (  -0.30935  -0.62741   ) 
                     (   0.03812  -0.07213   ) 
                     (   0.00352   0.06320   ) 
                     (   0.67159  -0.19571   ) 

     Representation     5      1 modes -  Not done in this run
     Irreps are as follows:

                     mode #   5
                     (  -0.00000  -0.00000   ) 
                     (  -0.00000  -0.00000   ) 
                     (  -0.00000  -0.00000   ) 
                     (  -0.00000  -0.00000   ) 
                     (  -0.00000  -0.00000   ) 
                     (  -0.00000  -0.00000   ) 
                     (  -0.69295  -0.00000   ) 
                     (   0.02324  -0.10712   ) 
                     (   0.04483   0.07614   ) 
                     (  -0.02770  -0.37714   ) 
                     (  -0.15494   0.57025   ) 
                     (  -0.08277   0.03093   ) 

     Representation     6      1 modes -  Not done in this run
     Irreps are as follows:

                     mode #   6
                     (  -0.61038   0.00000   ) 
                     (  -0.34510  -0.06663   ) 
                     (  -0.06196  -0.00825   ) 
                     (  -0.05573  -0.01625   ) 
                     (  -0.15456   0.68471   ) 
                     (   0.01888  -0.05959   ) 
                     (  -0.00000  -0.00000   ) 
                     (  -0.00000  -0.00000   ) 
                     (  -0.00000  -0.00000   ) 
                     (  -0.00000  -0.00000   ) 
                     (  -0.00000  -0.00000   ) 
                     (  -0.00000  -0.00000   ) 

     Representation     7      1 modes -  Not done in this run
     Irreps are as follows:

                     mode #   7
                     (   0.00000  -0.00000   ) 
                     (   0.00000  -0.00000   ) 
                     (   0.00000  -0.00000   ) 
                     (   0.00000  -0.00000   ) 
                     (   0.00000  -0.00000   ) 
                     (   0.00000  -0.00000   ) 
                     (  -0.47757   0.00000   ) 
                     (   0.46861   0.21755   ) 
                     (   0.06998  -0.01037   ) 
                     (  -0.29747   0.60210   ) 
                     (  -0.07599  -0.19545   ) 
                     (   0.00194  -0.07072   ) 

     Representation     8      1 modes -  Not done in this run
     Irreps are as follows:

                     mode #   8
                     (  -0.18193  -0.00000   ) 
                     (  -0.66220   0.07269   ) 
                     (   0.10953  -0.10542   ) 
                     (   0.02180  -0.48612   ) 
                     (   0.04906  -0.48754   ) 
                     (  -0.08480  -0.12617   ) 
                     (  -0.00000   0.00000   ) 
                     (  -0.00000   0.00000   ) 
                     (  -0.00000   0.00000   ) 
                     (  -0.00000   0.00000   ) 
                     (  -0.00000   0.00000   ) 
                     (  -0.00000   0.00000   ) 

     Representation     9      1 modes -  Not done in this run
     Irreps are as follows:

                     mode #   9
                     (  -0.00000  -0.00000   ) 
                     (  -0.00000  -0.00000   ) 
                     (  -0.00000  -0.00000   ) 
                     (  -0.00000  -0.00000   ) 
                     (  -0.00000  -0.00000   ) 
                     (  -0.00000  -0.00000   ) 
                     (  -0.10743  -0.00000   ) 
                     (  -0.00021  -0.00890   ) 
                     (  -0.68033   0.15979   ) 
                     (  -0.00170   0.05406   ) 
                     (   0.02056  -0.09095   ) 
                     (   0.03923   0.69774   ) 

     Representation    10      1 modes -  Not done in this run
     Irreps are as follows:

                     mode #  10
                     (  -0.03498   0.00000   ) 
                     (   0.16460  -0.02287   ) 
                     (   0.47983  -0.49084   ) 
                     (  -0.00829   0.16104   ) 
                     (   0.00223   0.05321   ) 
                     (  -0.40007  -0.55777   ) 
                     (  -0.00000   0.00000   ) 
                     (  -0.00000   0.00000   ) 
                     (  -0.00000   0.00000   ) 
                     (  -0.00000   0.00000   ) 
                     (  -0.00000   0.00000   ) 
                     (  -0.00000   0.00000   ) 

     Representation    11      1 modes -  Not done in this run
     Irreps are as follows:

                     mode #  11
                     (  -0.68241   0.00000   ) 
                     (   0.16811  -0.01821   ) 
                     (  -0.05379   0.05326   ) 
                     (  -0.06900   0.48213   ) 
                     (   0.09699  -0.49764   ) 
                     (   0.04311   0.06223   ) 
                     (  -0.00000  -0.00000   ) 
                     (  -0.00000  -0.00000   ) 
                     (  -0.00000  -0.00000   ) 
                     (  -0.00000  -0.00000   ) 
                     (  -0.00000  -0.00000   ) 
                     (  -0.00000  -0.00000   ) 

     Representation    12      1 modes -  Not done in this run
     Irreps are as follows:

                     mode #  12
                     (   0.00000  -0.00000   ) 
                     (   0.00000  -0.00000   ) 
                     (   0.00000  -0.00000   ) 
                     (   0.00000  -0.00000   ) 
                     (   0.00000  -0.00000   ) 
                     (   0.00000  -0.00000   ) 
                     (  -0.51028  -0.00000   ) 
                     (  -0.43853  -0.20173   ) 
                     (   0.07773  -0.02393   ) 
                     (   0.19369  -0.09241   ) 
                     (   0.21415  -0.63362   ) 
                     (  -0.01007  -0.08070   ) 

     Compute atoms:     3,    4,



     Alpha used in Ewald sum =   2.8000

     negative rho (up, down):  5.457E-06 0.000E+00
     PHONON       :      1h25m CPU      2h33m WALL



     Representation #   1 mode #   1

     Self-consistent Calculation

      iter #   1 total cpu time : 10105.8 secs   av.it.:   6.9
      thresh= 1.000E-02 alpha_mix =  0.700 |ddv_scf|^2 =  2.937E-07

      iter #   2 total cpu time : 11842.9 secs   av.it.:  13.7
      thresh= 5.419E-05 alpha_mix =  0.700 |ddv_scf|^2 =  1.125E-07

      iter #   3 total cpu time : 13473.0 secs   av.it.:  13.0
      thresh= 3.354E-05 alpha_mix =  0.700 |ddv_scf|^2 =  7.624E-09

      iter #   4 total cpu time : 15099.1 secs   av.it.:  13.2
      thresh= 8.731E-06 alpha_mix =  0.700 |ddv_scf|^2 =  2.995E-10

      iter #   5 total cpu time : 16769.8 secs   av.it.:  13.9
      thresh= 1.731E-06 alpha_mix =  0.700 |ddv_scf|^2 =  2.012E-11

      iter #   6 total cpu time : 18399.6 secs   av.it.:  13.6
      thresh= 4.486E-07 alpha_mix =  0.700 |ddv_scf|^2 =  3.414E-13

     End of self-consistent calculation

     Convergence has been achieved 

     Not diagonalizing because representation    2 is not done

     init_run     :      1.80s CPU      2.14s WALL (       1 calls)
     electrons    :   3171.99s CPU   5397.95s WALL (       1 calls)

     Called by init_run:
     wfcinit      :      0.00s CPU      0.04s WALL (       1 calls)
     wfcinit:atom :      0.83s CPU      1.23s WALL (     342 calls)
     wfcinit:wfcr :    102.66s CPU    162.91s WALL (     342 calls)
     potinit      :      0.22s CPU      0.30s WALL (       1 calls)
     hinit0       :      0.41s CPU      0.43s WALL (       1 calls)

     Called by electrons:
     c_bands      :   3171.94s CPU   5397.85s WALL (       1 calls)
     v_of_rho     :      0.29s CPU      0.35s WALL (       2 calls)
     v_h          :      0.03s CPU      0.03s WALL (       2 calls)
     v_xc         :      0.38s CPU      0.46s WALL (       3 calls)
     newd         :      0.63s CPU      0.96s WALL (       2 calls)

     Called by c_bands:
     init_us_2    :      9.13s CPU     17.08s WALL (    2394 calls)
     init_us_2:cp :      9.12s CPU     17.08s WALL (    2394 calls)
     cegterg      :   3036.89s CPU   5174.56s WALL (     670 calls)

     Called by sum_band:

     Called by *egterg:
     cdiaghg      :    173.67s CPU    350.34s WALL (    9718 calls)
     cegterg:over :    921.78s CPU   1675.89s WALL (    9376 calls)
     cegterg:upda :     60.84s CPU    113.45s WALL (    9376 calls)
     cegterg:last :     37.44s CPU     51.32s WALL (    1690 calls)
     h_psi        :   3697.24s CPU   5953.06s WALL (   28360 calls)
     s_psi        :    194.12s CPU    369.42s WALL (   47358 calls)
     g_psi        :      2.72s CPU      3.59s WALL (    9376 calls)

     Called by h_psi:
     h_psi:calbec :    779.25s CPU   1856.78s WALL (   28360 calls)
     vloc_psi     :   2800.60s CPU   3872.47s WALL (   28360 calls)
     add_vuspsi   :    109.57s CPU    207.53s WALL (   28360 calls)

     General routines
     calbec       :   1548.77s CPU   3324.45s WALL (   53514 calls)
     fft          :      2.13s CPU      2.87s WALL (     154 calls)
     ffts         :      6.45s CPU     11.16s WALL (     195 calls)
     fftw         :   4291.50s CPU   6407.20s WALL (  514219 calls)
     davcio       :      5.39s CPU     47.40s WALL (    6945 calls)

     Parallel routines

     PHONON       :      2h51m CPU      5h 7m WALL

     INITIALIZATION: 
     phq_setup    :      0.27s CPU      0.55s WALL (       1 calls)
     phq_init     :   1982.88s CPU   3757.20s WALL (       1 calls)

     phq_init     :   1982.88s CPU   3757.20s WALL (       1 calls)
     set_drhoc    :      1.42s CPU      1.45s WALL (       3 calls)
     init_vloc    :      0.40s CPU      0.40s WALL (       2 calls)
     init_us_1    :      0.11s CPU      0.12s WALL (       2 calls)
     init_us_2    :      9.13s CPU     17.08s WALL (    2394 calls)
     newd         :      0.63s CPU      0.96s WALL (       2 calls)
     dvanqq       :      3.87s CPU      3.90s WALL (       1 calls)
     drho         :   1864.00s CPU   3516.89s WALL (       1 calls)

     DYNAMICAL MATRIX:
     dynmat0      :     65.02s CPU    128.38s WALL (       1 calls)
     phqscf       :   5130.87s CPU   9258.43s WALL (       1 calls)
     dynmatrix    :      0.03s CPU      1.25s WALL (       1 calls)

     phqscf       :   5130.87s CPU   9258.43s WALL (       1 calls)
     solve_linter :   5091.62s CPU   9181.66s WALL (       1 calls)
     drhodv       :     39.26s CPU     76.64s WALL (       1 calls)

     dynmat0      :     65.02s CPU    128.38s WALL (       1 calls)
     dynmat_us    :     63.76s CPU    127.09s WALL (       1 calls)
     d2ionq       :      0.16s CPU      0.16s WALL (       1 calls)
     dynmatcc     :      1.09s CPU      1.11s WALL (       1 calls)

     dynmat_us    :     63.76s CPU    127.09s WALL (       1 calls)
     addusdynmat  :      0.00s CPU      0.00s WALL (       1 calls)

     phqscf       :   5130.87s CPU   9258.43s WALL (       1 calls)
     solve_linter :   5091.62s CPU   9181.66s WALL (       1 calls)

     solve_linter :   5091.62s CPU   9181.66s WALL (       1 calls)
     dvqpsi_us    :     29.06s CPU     46.54s WALL (     171 calls)
     sth_kernel   :   5056.68s CPU   9121.62s WALL (       6 calls)
     apply_dpot_b :     74.80s CPU    101.70s WALL (     855 calls)
     ortho        :     47.16s CPU     86.11s WALL (    1026 calls)
     cgsolve      :   4772.38s CPU   8669.89s WALL (    1026 calls)
     incdrhoscf   :    129.27s CPU    185.52s WALL (    1026 calls)
     addusddens   :      6.37s CPU     11.96s WALL (      18 calls)
     dv_of_drho   :      0.55s CPU      0.71s WALL (       6 calls)
     mix_pot      :      0.09s CPU      1.23s WALL (       6 calls)
     psymdvscf    :      1.17s CPU      1.62s WALL (       6 calls)
     newdq        :      1.02s CPU      1.04s WALL (       6 calls)
     adddvscf     :     14.93s CPU     35.97s WALL (     855 calls)
     drhodvus     :      0.01s CPU      0.02s WALL (       1 calls)

     dvqpsi_us    :     29.06s CPU     46.54s WALL (     171 calls)
     dvqpsi_us_on :      4.62s CPU     12.53s WALL (     171 calls)

     cgsolve      :   4772.38s CPU   8669.89s WALL (    1026 calls)
     ch_psi       :   3211.84s CPU   5513.38s WALL (   17972 calls)

     ch_psi       :   3211.84s CPU   5513.38s WALL (   17972 calls)
     h_psi        :   3697.24s CPU   5953.06s WALL (   28360 calls)
     last         :    815.90s CPU   1585.90s WALL (   17972 calls)

     h_psi        :   3697.24s CPU   5953.06s WALL (   28360 calls)
     add_vuspsi   :    109.57s CPU    207.53s WALL (   28360 calls)

     incdrhoscf   :    129.27s CPU    185.52s WALL (    1026 calls)
     addusdbec    :    142.20s CPU    293.58s WALL (    3078 calls)

     drhodvus     :      0.01s CPU      0.02s WALL (       1 calls)

      General routines
     calbec       :   1548.77s CPU   3324.45s WALL (   53514 calls)
     fft          :      2.13s CPU      2.87s WALL (     154 calls)
     ffts         :      6.45s CPU     11.16s WALL (     195 calls)
     fftw         :   4291.50s CPU   6407.20s WALL (  514219 calls)
     davcio       :      5.39s CPU     47.40s WALL (    6945 calls)
     write_rec    :      0.00s CPU      0.62s WALL (       7 calls)


     PHONON       :      2h51m CPU      5h 7m WALL


   This run was terminated on:  22:28:32   2Mar2024            

=------------------------------------------------------------------------------=
   JOB DONE.
=------------------------------------------------------------------------------=
