
     Program PHONON v.7.1 starts on 29Feb2024 at 22:35:45 

     This program is part of the open-source Quantum ESPRESSO suite
     for quantum simulation of materials; please cite
         "P. Giannozzi et al., J. Phys.:Condens. Matter 21 395502 (2009);
         "P. Giannozzi et al., J. Phys.:Condens. Matter 29 465901 (2017);
         "P. Giannozzi et al., J. Chem. Phys. 152 154105 (2020);
          URL http://www.quantum-espresso.org", 
     in publications or presentations arising from this work. More details at
     http://www.quantum-espresso.org/quote

     Parallel version (MPI), running on     8 processors

     MPI processes distributed on     1 nodes
     R & G space division:  proc/nbgrp/npool/nimage =       8
     28743 MiB available memory on the printing compute node when the environment starts

     Reading input from input.6.11
      Title line not specified: using 'default'.

     Reading xml data from directory:

     /home/ext_chineason_graduate_utm_my/fgc/tmp/6.11/fgc.save/

     IMPORTANT: XC functional enforced from input :
     Exchange-correlation= PBE
                           (   1   4   3   4   0   0   0)
     Any further DFT definition will be discarded
     Please, verify this is what you really want


     Parallelization info
     --------------------
     sticks:   dense  smooth     PW     G-vecs:    dense   smooth      PW
     Min         416     416    114               138498   138498   19368
     Max         417     417    115               138521   138521   19383
     Sum        3331    3331    913              1108055  1108055  154987

     Using Slab Decomposition

 ----2D----2D----2D----2D----2D----2D----2D----2D----2D----2D----2D----2D
  The code is running with the 2D cutoff
  Please refer to:
  Sohier, T., Calandra, M., & Mauri, F. (2017), 
  Density functional perturbation theory for gated two-dimensional heterostructures:
  Theoretical developments and application to flexural phonons in graphene.
  Physical Review B, 96(7), 75448. https://doi.org/10.1103/PhysRevB.96.075448
 ----2D----2D----2D----2D----2D----2D----2D----2D----2D----2D----2D----2D

     negative rho (up, down):  5.457E-06 0.000E+00
     Reading collected, re-writing distributed wavefunctions
        1 /  12 q-points for this run, from  6 to  6:
       N       xq(1)         xq(2)         xq(3) 
       1   0.000000000   0.000000000   0.000000000
       2   0.000000000   0.128300060   0.000000000
       3   0.000000000   0.256600120   0.000000000
       4   0.000000000   0.384900179   0.000000000
       5   0.000000000   0.513200239   0.000000000
       6   0.111111111   0.192450090   0.000000000
       7   0.111111111   0.320750150   0.000000000
       8   0.111111111   0.449050209   0.000000000
       9   0.111111111   0.577350269   0.000000000
      10   0.222222222   0.384900179   0.000000000
      11   0.222222222   0.513200239   0.000000000
      12   0.333333333   0.577350269   0.000000000


     Calculation of q =    0.1111111   0.1924501   0.0000000
     Subspace diagonalization in iterative solution of the eigenvalue problem:
     a serial algorithm will be used


     Parallelization info
     --------------------
     sticks:   dense  smooth     PW     G-vecs:    dense   smooth      PW
     Min         416     416    115               138498   138498   20091
     Max         417     417    116               138521   138521   20114
     Sum        3331    3331    925              1108055  1108055  160857

     Using Slab Decomposition


     Title: 
     default                                                                    


     bravais-lattice index     =            4
     lattice parameter (alat)  =       4.9233  a.u.
     unit-cell volume          =     733.8532 (a.u.)^3
     number of atoms/cell      =            4
     number of atomic types    =            2
     number of electrons       =        22.00
     number of Kohn-Sham states=           15
     kinetic-energy cutoff     =     500.0000  Ry
     charge density cutoff     =    2000.0000  Ry
     Exchange-correlation= PBE
                           (   1   4   3   4   0   0   0)

     celldm(1)=   4.923251  celldm(2)=   0.000000  celldm(3)=   7.101051
     celldm(4)=   0.000000  celldm(5)=   0.000000  celldm(6)=   0.000000

     crystal axes: (cart. coord. in units of alat)
               a(1) = (   1.000000   0.000000   0.000000 )  
               a(2) = (  -0.500000   0.866025   0.000000 )  
               a(3) = (   0.000000   0.000000   7.101051 )  

     reciprocal axes: (cart. coord. in units 2 pi/alat)
               b(1) = (  1.000000  0.577350 -0.000000 )  
               b(2) = (  0.000000  1.154701  0.000000 )  
               b(3) = (  0.000000 -0.000000  0.140824 )  


     PseudoPot. # 1 for C  read from file:
     ../pseudo/c_pbe_v1.2.uspp.F.UPF
     MD5 check sum: d1aef80898a10debaa0f26306b886e00
     Pseudo is Ultrasoft + core correction, Zval =  4.0
     Generated by new atomic code, or converted to UPF format
     Using radial grid of  721 points,  4 beta functions with: 
                l(1) =   0
                l(2) =   0
                l(3) =   1
                l(4) =   1
     Q(r) pseudized with  8 coefficients,  rinner =    1.100   1.100   1.100


     PseudoPot. # 2 for F  read from file:
     ../pseudo/f_pbe_v1.4.uspp.F.UPF
     MD5 check sum: 4c38b6a325caf53ec0e86aed9459de46
     Pseudo is Ultrasoft, Zval =  7.0
     Generated by new atomic code, or converted to UPF format
     Using radial grid of  799 points,  4 beta functions with: 
                l(1) =   0
                l(2) =   0
                l(3) =   1
                l(4) =   1
     Q(r) pseudized with  8 coefficients,  rinner =    0.950   0.950   0.950


     atomic species   valence    mass     pseudopotential
        C              4.00    12.01070     C ( 1.00)
        F              7.00    18.99840     F ( 1.00)

     12 Sym. Ops., with inversion, found


                                    s                        frac. trans.

      isym =  1     identity                                     

 cryst.   s( 1) = (     1          0          0      )
                  (     0          1          0      )
                  (     0          0          1      )

 cart.    s( 1) = (  1.0000000  0.0000000  0.0000000 )
                  (  0.0000000  1.0000000  0.0000000 )
                  (  0.0000000  0.0000000  1.0000000 )


      isym =  2     180 deg rotation - cryst. axis [1,1,0]       

 cryst.   s( 2) = (     0          1          0      )    f =(  0.5000000 )
                  (     1          0          0      )       (  0.5000000 )
                  (     0          0         -1      )       (  0.0000000 )

 cart.    s( 2) = ( -0.5000000  0.8660254  0.0000000 )    f =(  0.2500000 )
                  (  0.8660254  0.5000000  0.0000000 )       (  0.4330127 )
                  (  0.0000000  0.0000000 -1.0000000 )       (  0.0000000 )


      isym =  3     120 deg rotation - cryst. axis [0,0,1]       

 cryst.   s( 3) = (     0          1          0      )    f =( -0.5000000 )
                  (    -1         -1          0      )       ( -0.5000000 )
                  (     0          0          1      )       (  0.0000000 )

 cart.    s( 3) = ( -0.5000000 -0.8660254  0.0000000 )    f =( -0.2500000 )
                  (  0.8660254 -0.5000000  0.0000000 )       ( -0.4330127 )
                  (  0.0000000  0.0000000  1.0000000 )       (  0.0000000 )


      isym =  4     120 deg rotation - cryst. axis [0,0,-1]      

 cryst.   s( 4) = (    -1         -1          0      )    f =(  0.0000000 )
                  (     1          0          0      )       ( -0.5000000 )
                  (     0          0          1      )       (  0.0000000 )

 cart.    s( 4) = ( -0.5000000  0.8660254  0.0000000 )    f =(  0.2500000 )
                  ( -0.8660254 -0.5000000  0.0000000 )       ( -0.4330127 )
                  (  0.0000000  0.0000000  1.0000000 )       (  0.0000000 )


      isym =  5     180 deg rotation - cryst. axis [0,1,0]       

 cryst.   s( 5) = (    -1         -1          0      )    f =(  0.0000000 )
                  (     0          1          0      )       ( -0.5000000 )
                  (     0          0         -1      )       (  0.0000000 )

 cart.    s( 5) = ( -0.5000000 -0.8660254  0.0000000 )    f =(  0.2500000 )
                  ( -0.8660254  0.5000000  0.0000000 )       ( -0.4330127 )
                  (  0.0000000  0.0000000 -1.0000000 )       (  0.0000000 )


      isym =  6     180 deg rotation - cart. axis [1,0,0]        

 cryst.   s( 6) = (     1          0          0      )
                  (    -1         -1          0      )
                  (     0          0         -1      )

 cart.    s( 6) = (  1.0000000  0.0000000  0.0000000 )
                  (  0.0000000 -1.0000000  0.0000000 )
                  (  0.0000000  0.0000000 -1.0000000 )


      isym =  7     inversion                                    

 cryst.   s( 7) = (    -1          0          0      )
                  (     0         -1          0      )
                  (     0          0         -1      )

 cart.    s( 7) = ( -1.0000000  0.0000000  0.0000000 )
                  (  0.0000000 -1.0000000  0.0000000 )
                  (  0.0000000  0.0000000 -1.0000000 )


      isym =  8     inv. 180 deg rotation - cart. axis [1,0,0]   

 cryst.   s( 8) = (    -1          0          0      )
                  (     1          1          0      )
                  (     0          0          1      )

 cart.    s( 8) = ( -1.0000000 -0.0000000  0.0000000 )
                  (  0.0000000  1.0000000  0.0000000 )
                  (  0.0000000  0.0000000  1.0000000 )


      isym =  9     inv. 120 deg rotation - cryst. axis [0,0,1]  

 cryst.   s( 9) = (     0         -1          0      )    f =(  0.5000000 )
                  (     1          1          0      )       ( -0.5000000 )
                  (     0          0         -1      )       (  0.0000000 )

 cart.    s( 9) = (  0.5000000  0.8660254  0.0000000 )    f =(  0.7500000 )
                  ( -0.8660254  0.5000000  0.0000000 )       ( -0.4330127 )
                  (  0.0000000  0.0000000 -1.0000000 )       (  0.0000000 )


      isym = 10     inv. 120 deg rotation - cryst. axis [0,0,-1] 

 cryst.   s(10) = (     1          1          0      )    f =(  0.0000000 )
                  (    -1          0          0      )       (  0.5000000 )
                  (     0          0         -1      )       (  0.0000000 )

 cart.    s(10) = (  0.5000000 -0.8660254  0.0000000 )    f =( -0.2500000 )
                  (  0.8660254  0.5000000  0.0000000 )       (  0.4330127 )
                  (  0.0000000  0.0000000 -1.0000000 )       (  0.0000000 )


      isym = 11     inv. 180 deg rotation - cryst. axis [0,1,0]  

 cryst.   s(11) = (     1          1          0      )    f =(  0.0000000 )
                  (     0         -1          0      )       ( -0.5000000 )
                  (     0          0          1      )       (  0.0000000 )

 cart.    s(11) = (  0.5000000  0.8660254  0.0000000 )    f =(  0.2500000 )
                  (  0.8660254 -0.5000000  0.0000000 )       ( -0.4330127 )
                  (  0.0000000  0.0000000  1.0000000 )       (  0.0000000 )


      isym = 12     inv. 180 deg rotation - cryst. axis [1,1,0]  

 cryst.   s(12) = (     0         -1          0      )    f =( -0.5000000 )
                  (    -1          0          0      )       ( -0.5000000 )
                  (     0          0          1      )       (  0.0000000 )

 cart.    s(12) = (  0.5000000 -0.8660254  0.0000000 )    f =( -0.2500000 )
                  ( -0.8660254 -0.5000000  0.0000000 )       ( -0.4330127 )
                  (  0.0000000  0.0000000  1.0000000 )       (  0.0000000 )


     point group D_3d (-3m) 
     there are  6 classes
     the character table:

       E     2C3   3C2'  i     2S6   3s_d 
A_1g   1.00  1.00  1.00  1.00  1.00  1.00
A_2g   1.00  1.00 -1.00  1.00  1.00 -1.00
E_g    2.00 -1.00  0.00  2.00 -1.00  0.00
A_1u   1.00  1.00  1.00 -1.00 -1.00 -1.00
A_2u   1.00  1.00 -1.00 -1.00 -1.00  1.00
E_u    2.00 -1.00  0.00 -2.00  1.00  0.00

     the symmetry operations in each class and the name of the first element:

     E        1
          identity                                               
     2C3      3    4
          120 deg rotation - cryst. axis [0,0,1]                 
     3C2'     2    6    5
          180 deg rotation - cryst. axis [1,1,0]                 
     i        7
          inversion                                              
     2S6      9   10
          inv. 120 deg rotation - cryst. axis [0,0,1]            
     3s_d     8   11   12
          inv. 180 deg rotation - cart. axis [1,0,0]             

   Cartesian axes

     site n.     atom                  positions (alat units)
         1           C   tau(   1) = (   0.5000000   0.5773503  -0.0938425  )
         2           C   tau(   2) = (  -0.0000000   0.2886751   0.0938425  )
         3           F   tau(   3) = (   0.5000000   0.5773503  -0.6234719  )
         4           F   tau(   4) = (  -0.0000000   0.2886751   0.6234719  )

   Crystallographic axes

     site n.     atom                  positions (cryst. coord.)
         1           C   tau(   1) = (  0.8333333  0.6666667 -0.0132153  )
         2           C   tau(   2) = (  0.1666667  0.3333333  0.0132153  )
         3           F   tau(   3) = (  0.8333333  0.6666667 -0.0877999  )
         4           F   tau(   4) = (  0.1666667  0.3333333  0.0877999  )

     number of k points=   342  Marzari-Vanderbilt smearing, width (Ry)=  0.0010
                       cart. coord. in units 2pi/alat
        k(    1) = (   0.0000000   0.0000000   0.0000000), wk =   0.0061728
        k(    2) = (   0.1111111   0.1924501   0.0000000), wk =   0.0000000
        k(    3) = (   0.0000000   0.0641500   0.0000000), wk =   0.0123457
        k(    4) = (   0.1111111   0.2566001   0.0000000), wk =   0.0000000
        k(    5) = (   0.0000000   0.1283001   0.0000000), wk =   0.0123457
        k(    6) = (   0.1111111   0.3207501   0.0000000), wk =   0.0000000
        k(    7) = (   0.0000000   0.1924501   0.0000000), wk =   0.0123457
        k(    8) = (   0.1111111   0.3849002   0.0000000), wk =   0.0000000
        k(    9) = (   0.0000000   0.2566001   0.0000000), wk =   0.0123457
        k(   10) = (   0.1111111   0.4490502   0.0000000), wk =   0.0000000
        k(   11) = (   0.0000000   0.3207501   0.0000000), wk =   0.0123457
        k(   12) = (   0.1111111   0.5132002   0.0000000), wk =   0.0000000
        k(   13) = (   0.0000000   0.3849002   0.0000000), wk =   0.0123457
        k(   14) = (   0.1111111   0.5773503   0.0000000), wk =   0.0000000
        k(   15) = (   0.0000000   0.4490502   0.0000000), wk =   0.0123457
        k(   16) = (   0.1111111   0.6415003   0.0000000), wk =   0.0000000
        k(   17) = (   0.0000000   0.5132002   0.0000000), wk =   0.0123457
        k(   18) = (   0.1111111   0.7056503   0.0000000), wk =   0.0000000
        k(   19) = (   0.0000000  -0.5773503   0.0000000), wk =   0.0123457
        k(   20) = (   0.1111111  -0.3849002   0.0000000), wk =   0.0000000
        k(   21) = (   0.0555556   0.0962250   0.0000000), wk =   0.0061728
        k(   22) = (   0.1666667   0.2886751   0.0000000), wk =   0.0000000
        k(   23) = (   0.0555556   0.1603751   0.0000000), wk =   0.0123457
        k(   24) = (   0.1666667   0.3528252   0.0000000), wk =   0.0000000
        k(   25) = (   0.0555556   0.2245251   0.0000000), wk =   0.0123457
        k(   26) = (   0.1666667   0.4169752   0.0000000), wk =   0.0000000
        k(   27) = (   0.0555556   0.2886751   0.0000000), wk =   0.0123457
        k(   28) = (   0.1666667   0.4811252   0.0000000), wk =   0.0000000
        k(   29) = (   0.0555556   0.3528252   0.0000000), wk =   0.0123457
        k(   30) = (   0.1666667   0.5452753   0.0000000), wk =   0.0000000
        k(   31) = (   0.0555556   0.4169752   0.0000000), wk =   0.0123457
        k(   32) = (   0.1666667   0.6094253   0.0000000), wk =   0.0000000
        k(   33) = (   0.0555556   0.4811252   0.0000000), wk =   0.0123457
        k(   34) = (   0.1666667   0.6735753   0.0000000), wk =   0.0000000
        k(   35) = (   0.0555556   0.5452753   0.0000000), wk =   0.0123457
        k(   36) = (   0.1666667   0.7377253   0.0000000), wk =   0.0000000
        k(   37) = (   0.1111111   0.1924501   0.0000000), wk =   0.0061728
        k(   38) = (   0.2222222   0.3849002   0.0000000), wk =   0.0000000
        k(   39) = (   0.1111111   0.2566001   0.0000000), wk =   0.0123457
        k(   40) = (   0.2222222   0.4490502   0.0000000), wk =   0.0000000
        k(   41) = (   0.1111111   0.3207501   0.0000000), wk =   0.0123457
        k(   42) = (   0.2222222   0.5132002   0.0000000), wk =   0.0000000
        k(   43) = (   0.1111111   0.3849002   0.0000000), wk =   0.0123457
        k(   44) = (   0.2222222   0.5773503   0.0000000), wk =   0.0000000
        k(   45) = (   0.1111111   0.4490502   0.0000000), wk =   0.0123457
        k(   46) = (   0.2222222   0.6415003   0.0000000), wk =   0.0000000
        k(   47) = (   0.1111111   0.5132002   0.0000000), wk =   0.0123457
        k(   48) = (   0.2222222   0.7056503   0.0000000), wk =   0.0000000
        k(   49) = (   0.1111111   0.5773503   0.0000000), wk =   0.0123457
        k(   50) = (   0.2222222   0.7698004   0.0000000), wk =   0.0000000
        k(   51) = (   0.1666667   0.2886751   0.0000000), wk =   0.0061728
        k(   52) = (   0.2777778   0.4811252   0.0000000), wk =   0.0000000
        k(   53) = (   0.1666667   0.3528252   0.0000000), wk =   0.0123457
        k(   54) = (   0.2777778   0.5452753   0.0000000), wk =   0.0000000
        k(   55) = (   0.1666667   0.4169752   0.0000000), wk =   0.0123457
        k(   56) = (   0.2777778   0.6094253   0.0000000), wk =   0.0000000
        k(   57) = (   0.1666667   0.4811252   0.0000000), wk =   0.0123457
        k(   58) = (   0.2777778   0.6735753   0.0000000), wk =   0.0000000
        k(   59) = (   0.1666667   0.5452753   0.0000000), wk =   0.0123457
        k(   60) = (   0.2777778   0.7377253   0.0000000), wk =   0.0000000
        k(   61) = (   0.2222222   0.3849002   0.0000000), wk =   0.0061728
        k(   62) = (   0.3333333   0.5773503   0.0000000), wk =   0.0000000
        k(   63) = (   0.2222222   0.4490502   0.0000000), wk =   0.0123457
        k(   64) = (   0.3333333   0.6415003   0.0000000), wk =   0.0000000
        k(   65) = (   0.2222222   0.5132002   0.0000000), wk =   0.0123457
        k(   66) = (   0.3333333   0.7056503   0.0000000), wk =   0.0000000
        k(   67) = (   0.2222222   0.5773503   0.0000000), wk =   0.0123457
        k(   68) = (   0.3333333   0.7698004   0.0000000), wk =   0.0000000
        k(   69) = (   0.2777778   0.4811252   0.0000000), wk =   0.0061728
        k(   70) = (   0.3888889   0.6735753   0.0000000), wk =   0.0000000
        k(   71) = (   0.2777778   0.5452753   0.0000000), wk =   0.0123457
        k(   72) = (   0.3888889   0.7377253   0.0000000), wk =   0.0000000
        k(   73) = (   0.3333333   0.5773503   0.0000000), wk =   0.0061728
        k(   74) = (   0.4444444   0.7698004   0.0000000), wk =   0.0000000
        k(   75) = (  -0.0555556  -0.0320750   0.0000000), wk =   0.0123457
        k(   76) = (   0.0555556   0.1603751   0.0000000), wk =   0.0000000
        k(   77) = (   0.0555556  -0.0320750   0.0000000), wk =   0.0123457
        k(   78) = (   0.1666667   0.1603751   0.0000000), wk =   0.0000000
        k(   79) = (  -0.1111111  -0.0641500   0.0000000), wk =   0.0123457
        k(   80) = (   0.0000000   0.1283001   0.0000000), wk =   0.0000000
        k(   81) = (   0.1111111  -0.0641500   0.0000000), wk =   0.0123457
        k(   82) = (   0.2222222   0.1283001   0.0000000), wk =   0.0000000
        k(   83) = (  -0.1666667  -0.0962250   0.0000000), wk =   0.0123457
        k(   84) = (  -0.0555556   0.0962250   0.0000000), wk =   0.0000000
        k(   85) = (   0.1666667  -0.0962250   0.0000000), wk =   0.0123457
        k(   86) = (   0.2777778   0.0962250   0.0000000), wk =   0.0000000
        k(   87) = (  -0.2222222  -0.1283001   0.0000000), wk =   0.0123457
        k(   88) = (  -0.1111111   0.0641500   0.0000000), wk =   0.0000000
        k(   89) = (   0.2222222  -0.1283001   0.0000000), wk =   0.0123457
        k(   90) = (   0.3333333   0.0641500   0.0000000), wk =   0.0000000
        k(   91) = (  -0.2777778  -0.1603751   0.0000000), wk =   0.0123457
        k(   92) = (  -0.1666667   0.0320750   0.0000000), wk =   0.0000000
        k(   93) = (   0.2777778  -0.1603751   0.0000000), wk =   0.0123457
        k(   94) = (   0.3888889   0.0320750   0.0000000), wk =   0.0000000
        k(   95) = (  -0.3333333  -0.1924501   0.0000000), wk =   0.0123457
        k(   96) = (  -0.2222222   0.0000000   0.0000000), wk =   0.0000000
        k(   97) = (   0.3333333  -0.1924501   0.0000000), wk =   0.0123457
        k(   98) = (   0.4444444   0.0000000   0.0000000), wk =   0.0000000
        k(   99) = (  -0.3888889  -0.2245251   0.0000000), wk =   0.0123457
        k(  100) = (  -0.2777778  -0.0320750   0.0000000), wk =   0.0000000
        k(  101) = (   0.3888889  -0.2245251   0.0000000), wk =   0.0123457
        k(  102) = (   0.5000000  -0.0320750   0.0000000), wk =   0.0000000
        k(  103) = (  -0.4444444  -0.2566001   0.0000000), wk =   0.0123457
        k(  104) = (  -0.3333333  -0.0641500   0.0000000), wk =   0.0000000
        k(  105) = (   0.4444444  -0.2566001   0.0000000), wk =   0.0123457
        k(  106) = (   0.5555556  -0.0641500   0.0000000), wk =   0.0000000
        k(  107) = (  -0.5000000   0.2886751   0.0000000), wk =   0.0061728
        k(  108) = (  -0.3888889   0.4811252   0.0000000), wk =   0.0000000
        k(  109) = (  -0.1111111  -0.0000000   0.0000000), wk =   0.0123457
        k(  110) = (   0.0000000   0.1924501   0.0000000), wk =   0.0000000
        k(  111) = (  -0.0555556  -0.0962250   0.0000000), wk =   0.0061728
        k(  112) = (   0.0555556   0.0962250   0.0000000), wk =   0.0000000
        k(  113) = (  -0.0555556   0.0962250   0.0000000), wk =   0.0123457
        k(  114) = (   0.0555556   0.2886751   0.0000000), wk =   0.0000000
        k(  115) = (  -0.1666667  -0.0320750   0.0000000), wk =   0.0123457
        k(  116) = (  -0.0555556   0.1603751   0.0000000), wk =   0.0000000
        k(  117) = (   0.1111111  -0.1283001   0.0000000), wk =   0.0123457
        k(  118) = (   0.2222222   0.0641500   0.0000000), wk =   0.0000000
        k(  119) = (  -0.0555556  -0.1603751   0.0000000), wk =   0.0123457
        k(  120) = (   0.0555556   0.0320750   0.0000000), wk =   0.0000000
        k(  121) = (  -0.0555556   0.1603751   0.0000000), wk =   0.0123457
        k(  122) = (   0.0555556   0.3528252   0.0000000), wk =   0.0000000
        k(  123) = (  -0.1111111   0.1283001   0.0000000), wk =   0.0123457
        k(  124) = (   0.0000000   0.3207501   0.0000000), wk =   0.0000000
        k(  125) = (  -0.2222222  -0.0641500   0.0000000), wk =   0.0123457
        k(  126) = (  -0.1111111   0.1283001   0.0000000), wk =   0.0000000
        k(  127) = (   0.1666667  -0.1603751   0.0000000), wk =   0.0123457
        k(  128) = (   0.2777778   0.0320750   0.0000000), wk =   0.0000000
        k(  129) = (  -0.0555556  -0.2245251   0.0000000), wk =   0.0123457
        k(  130) = (   0.0555556  -0.0320750   0.0000000), wk =   0.0000000
        k(  131) = (  -0.0555556   0.2245251   0.0000000), wk =   0.0123457
        k(  132) = (   0.0555556   0.4169752   0.0000000), wk =   0.0000000
        k(  133) = (  -0.1666667   0.1603751   0.0000000), wk =   0.0123457
        k(  134) = (  -0.0555556   0.3528252   0.0000000), wk =   0.0000000
        k(  135) = (  -0.2777778  -0.0962250   0.0000000), wk =   0.0123457
        k(  136) = (  -0.1666667   0.0962250   0.0000000), wk =   0.0000000
        k(  137) = (   0.2222222  -0.1924501   0.0000000), wk =   0.0123457
        k(  138) = (   0.3333333   0.0000000   0.0000000), wk =   0.0000000
        k(  139) = (  -0.0555556  -0.2886751   0.0000000), wk =   0.0123457
        k(  140) = (   0.0555556  -0.0962250   0.0000000), wk =   0.0000000
        k(  141) = (  -0.0555556   0.2886751   0.0000000), wk =   0.0123457
        k(  142) = (   0.0555556   0.4811252   0.0000000), wk =   0.0000000
        k(  143) = (  -0.2222222   0.1924501   0.0000000), wk =   0.0123457
        k(  144) = (  -0.1111111   0.3849002   0.0000000), wk =   0.0000000
        k(  145) = (  -0.3333333  -0.1283001   0.0000000), wk =   0.0123457
        k(  146) = (  -0.2222222   0.0641500   0.0000000), wk =   0.0000000
        k(  147) = (   0.2777778  -0.2245251   0.0000000), wk =   0.0123457
        k(  148) = (   0.3888889  -0.0320750   0.0000000), wk =   0.0000000
        k(  149) = (  -0.0555556  -0.3528252   0.0000000), wk =   0.0123457
        k(  150) = (   0.0555556  -0.1603751   0.0000000), wk =   0.0000000
        k(  151) = (  -0.0555556   0.3528252   0.0000000), wk =   0.0123457
        k(  152) = (   0.0555556   0.5452753   0.0000000), wk =   0.0000000
        k(  153) = (  -0.2777778   0.2245251   0.0000000), wk =   0.0123457
        k(  154) = (  -0.1666667   0.4169752   0.0000000), wk =   0.0000000
        k(  155) = (  -0.3888889  -0.1603751   0.0000000), wk =   0.0123457
        k(  156) = (  -0.2777778   0.0320750   0.0000000), wk =   0.0000000
        k(  157) = (   0.3333333  -0.2566001   0.0000000), wk =   0.0123457
        k(  158) = (   0.4444444  -0.0641500   0.0000000), wk =   0.0000000
        k(  159) = (  -0.0555556  -0.4169752   0.0000000), wk =   0.0123457
        k(  160) = (   0.0555556  -0.2245251   0.0000000), wk =   0.0000000
        k(  161) = (  -0.0555556   0.4169752   0.0000000), wk =   0.0123457
        k(  162) = (   0.0555556   0.6094253   0.0000000), wk =   0.0000000
        k(  163) = (  -0.3333333   0.2566001   0.0000000), wk =   0.0123457
        k(  164) = (  -0.2222222   0.4490502   0.0000000), wk =   0.0000000
        k(  165) = (  -0.4444444  -0.1924501   0.0000000), wk =   0.0123457
        k(  166) = (  -0.3333333  -0.0000000   0.0000000), wk =   0.0000000
        k(  167) = (   0.3888889  -0.2886751   0.0000000), wk =   0.0123457
        k(  168) = (   0.5000000  -0.0962250   0.0000000), wk =   0.0000000
        k(  169) = (  -0.0555556  -0.4811252   0.0000000), wk =   0.0123457
        k(  170) = (   0.0555556  -0.2886751   0.0000000), wk =   0.0000000
        k(  171) = (  -0.0555556   0.4811252   0.0000000), wk =   0.0123457
        k(  172) = (   0.0555556   0.6735753   0.0000000), wk =   0.0000000
        k(  173) = (  -0.3888889   0.2886751   0.0000000), wk =   0.0123457
        k(  174) = (  -0.2777778   0.4811252   0.0000000), wk =   0.0000000
        k(  175) = (  -0.5000000  -0.2245251   0.0000000), wk =   0.0123457
        k(  176) = (  -0.3888889  -0.0320750   0.0000000), wk =   0.0000000
        k(  177) = (   0.4444444  -0.3207501   0.0000000), wk =   0.0123457
        k(  178) = (   0.5555556  -0.1283001   0.0000000), wk =   0.0000000
        k(  179) = (  -0.0555556  -0.5452753   0.0000000), wk =   0.0123457
        k(  180) = (   0.0555556  -0.3528252   0.0000000), wk =   0.0000000
        k(  181) = (  -0.0555556   0.5452753   0.0000000), wk =   0.0123457
        k(  182) = (   0.0555556   0.7377253   0.0000000), wk =   0.0000000
        k(  183) = (  -0.4444444   0.3207501   0.0000000), wk =   0.0123457
        k(  184) = (  -0.3333333   0.5132002   0.0000000), wk =   0.0000000
        k(  185) = (  -0.2222222  -0.0000000   0.0000000), wk =   0.0123457
        k(  186) = (  -0.1111111   0.1924501   0.0000000), wk =   0.0000000
        k(  187) = (  -0.1111111  -0.1924501   0.0000000), wk =   0.0061728
        k(  188) = (   0.0000000  -0.0000000   0.0000000), wk =   0.0000000
        k(  189) = (  -0.1111111   0.1924501   0.0000000), wk =   0.0123457
        k(  190) = (   0.0000000   0.3849002   0.0000000), wk =   0.0000000
        k(  191) = (  -0.2777778  -0.0320750   0.0000000), wk =   0.0123457
        k(  192) = (  -0.1666667   0.1603751   0.0000000), wk =   0.0000000
        k(  193) = (   0.1666667  -0.2245251   0.0000000), wk =   0.0123457
        k(  194) = (   0.2777778  -0.0320750   0.0000000), wk =   0.0000000
        k(  195) = (  -0.1111111  -0.2566001   0.0000000), wk =   0.0123457
        k(  196) = (   0.0000000  -0.0641500   0.0000000), wk =   0.0000000
        k(  197) = (  -0.1111111   0.2566001   0.0000000), wk =   0.0123457
        k(  198) = (   0.0000000   0.4490502   0.0000000), wk =   0.0000000
        k(  199) = (  -0.1666667   0.2245251   0.0000000), wk =   0.0123457
        k(  200) = (  -0.0555556   0.4169752   0.0000000), wk =   0.0000000
        k(  201) = (  -0.3333333  -0.0641500   0.0000000), wk =   0.0123457
        k(  202) = (  -0.2222222   0.1283001   0.0000000), wk =   0.0000000
        k(  203) = (   0.2222222  -0.2566001   0.0000000), wk =   0.0123457
        k(  204) = (   0.3333333  -0.0641500   0.0000000), wk =   0.0000000
        k(  205) = (  -0.1111111  -0.3207501   0.0000000), wk =   0.0123457
        k(  206) = (   0.0000000  -0.1283001   0.0000000), wk =   0.0000000
        k(  207) = (  -0.1111111   0.3207501   0.0000000), wk =   0.0123457
        k(  208) = (   0.0000000   0.5132002   0.0000000), wk =   0.0000000
        k(  209) = (  -0.2222222   0.2566001   0.0000000), wk =   0.0123457
        k(  210) = (  -0.1111111   0.4490502   0.0000000), wk =   0.0000000
        k(  211) = (  -0.3888889  -0.0962250   0.0000000), wk =   0.0123457
        k(  212) = (  -0.2777778   0.0962250   0.0000000), wk =   0.0000000
        k(  213) = (   0.2777778  -0.2886751   0.0000000), wk =   0.0123457
        k(  214) = (   0.3888889  -0.0962250   0.0000000), wk =   0.0000000
        k(  215) = (  -0.1111111  -0.3849002   0.0000000), wk =   0.0123457
        k(  216) = (   0.0000000  -0.1924501   0.0000000), wk =   0.0000000
        k(  217) = (  -0.1111111   0.3849002   0.0000000), wk =   0.0123457
        k(  218) = (   0.0000000   0.5773503   0.0000000), wk =   0.0000000
        k(  219) = (  -0.2777778   0.2886751   0.0000000), wk =   0.0123457
        k(  220) = (  -0.1666667   0.4811252   0.0000000), wk =   0.0000000
        k(  221) = (  -0.4444444  -0.1283001   0.0000000), wk =   0.0123457
        k(  222) = (  -0.3333333   0.0641500   0.0000000), wk =   0.0000000
        k(  223) = (   0.3333333  -0.3207501   0.0000000), wk =   0.0123457
        k(  224) = (   0.4444444  -0.1283001   0.0000000), wk =   0.0000000
        k(  225) = (  -0.1111111  -0.4490502   0.0000000), wk =   0.0123457
        k(  226) = (   0.0000000  -0.2566001   0.0000000), wk =   0.0000000
        k(  227) = (  -0.1111111   0.4490502   0.0000000), wk =   0.0123457
        k(  228) = (   0.0000000   0.6415003   0.0000000), wk =   0.0000000
        k(  229) = (  -0.3333333   0.3207501   0.0000000), wk =   0.0123457
        k(  230) = (  -0.2222222   0.5132002   0.0000000), wk =   0.0000000
        k(  231) = (  -0.5000000  -0.1603751   0.0000000), wk =   0.0123457
        k(  232) = (  -0.3888889   0.0320750   0.0000000), wk =   0.0000000
        k(  233) = (   0.3888889  -0.3528252   0.0000000), wk =   0.0123457
        k(  234) = (   0.5000000  -0.1603751   0.0000000), wk =   0.0000000
        k(  235) = (  -0.1111111  -0.5132002   0.0000000), wk =   0.0123457
        k(  236) = (   0.0000000  -0.3207501   0.0000000), wk =   0.0000000
        k(  237) = (  -0.1111111   0.5132002   0.0000000), wk =   0.0123457
        k(  238) = (   0.0000000   0.7056503   0.0000000), wk =   0.0000000
        k(  239) = (  -0.3888889   0.3528252   0.0000000), wk =   0.0123457
        k(  240) = (  -0.2777778   0.5452753   0.0000000), wk =   0.0000000
        k(  241) = (   0.4444444  -0.3849002   0.0000000), wk =   0.0061728
        k(  242) = (   0.5555556  -0.1924501   0.0000000), wk =   0.0000000
        k(  243) = (  -0.1111111  -0.5773503   0.0000000), wk =   0.0123457
        k(  244) = (   0.0000000  -0.3849002   0.0000000), wk =   0.0000000
        k(  245) = (  -0.4444444   0.3849002   0.0000000), wk =   0.0061728
        k(  246) = (  -0.3333333   0.5773503   0.0000000), wk =   0.0000000
        k(  247) = (  -0.3333333  -0.0000000   0.0000000), wk =   0.0123457
        k(  248) = (  -0.2222222   0.1924501   0.0000000), wk =   0.0000000
        k(  249) = (  -0.1666667  -0.2886751   0.0000000), wk =   0.0061728
        k(  250) = (  -0.0555556  -0.0962250   0.0000000), wk =   0.0000000
        k(  251) = (  -0.1666667   0.2886751   0.0000000), wk =   0.0123457
        k(  252) = (  -0.0555556   0.4811252   0.0000000), wk =   0.0000000
        k(  253) = (  -0.3888889  -0.0320750   0.0000000), wk =   0.0123457
        k(  254) = (  -0.2777778   0.1603751   0.0000000), wk =   0.0000000
        k(  255) = (   0.2222222  -0.3207501   0.0000000), wk =   0.0123457
        k(  256) = (   0.3333333  -0.1283001   0.0000000), wk =   0.0000000
        k(  257) = (  -0.1666667  -0.3528252   0.0000000), wk =   0.0123457
        k(  258) = (  -0.0555556  -0.1603751   0.0000000), wk =   0.0000000
        k(  259) = (  -0.1666667   0.3528252   0.0000000), wk =   0.0123457
        k(  260) = (  -0.0555556   0.5452753   0.0000000), wk =   0.0000000
        k(  261) = (  -0.2222222   0.3207501   0.0000000), wk =   0.0123457
        k(  262) = (  -0.1111111   0.5132002   0.0000000), wk =   0.0000000
        k(  263) = (  -0.4444444  -0.0641500   0.0000000), wk =   0.0123457
        k(  264) = (  -0.3333333   0.1283001   0.0000000), wk =   0.0000000
        k(  265) = (   0.2777778  -0.3528252   0.0000000), wk =   0.0123457
        k(  266) = (   0.3888889  -0.1603751   0.0000000), wk =   0.0000000
        k(  267) = (  -0.1666667  -0.4169752   0.0000000), wk =   0.0123457
        k(  268) = (  -0.0555556  -0.2245251   0.0000000), wk =   0.0000000
        k(  269) = (  -0.1666667   0.4169752   0.0000000), wk =   0.0123457
        k(  270) = (  -0.0555556   0.6094253   0.0000000), wk =   0.0000000
        k(  271) = (  -0.2777778   0.3528252   0.0000000), wk =   0.0123457
        k(  272) = (  -0.1666667   0.5452753   0.0000000), wk =   0.0000000
        k(  273) = (  -0.5000000  -0.0962250   0.0000000), wk =   0.0123457
        k(  274) = (  -0.3888889   0.0962250   0.0000000), wk =   0.0000000
        k(  275) = (   0.3333333  -0.3849002   0.0000000), wk =   0.0123457
        k(  276) = (   0.4444444  -0.1924501   0.0000000), wk =   0.0000000
        k(  277) = (  -0.1666667  -0.4811252   0.0000000), wk =   0.0123457
        k(  278) = (  -0.0555556  -0.2886751   0.0000000), wk =   0.0000000
        k(  279) = (  -0.1666667   0.4811252   0.0000000), wk =   0.0123457
        k(  280) = (  -0.0555556   0.6735753   0.0000000), wk =   0.0000000
        k(  281) = (  -0.3333333   0.3849002   0.0000000), wk =   0.0123457
        k(  282) = (  -0.2222222   0.5773503   0.0000000), wk =   0.0000000
        k(  283) = (  -0.5555556  -0.1283001   0.0000000), wk =   0.0123457
        k(  284) = (  -0.4444444   0.0641500   0.0000000), wk =   0.0000000
        k(  285) = (   0.3888889  -0.4169752   0.0000000), wk =   0.0123457
        k(  286) = (   0.5000000  -0.2245251   0.0000000), wk =   0.0000000
        k(  287) = (  -0.1666667  -0.5452753   0.0000000), wk =   0.0123457
        k(  288) = (  -0.0555556  -0.3528252   0.0000000), wk =   0.0000000
        k(  289) = (  -0.1666667   0.5452753   0.0000000), wk =   0.0123457
        k(  290) = (  -0.0555556   0.7377253   0.0000000), wk =   0.0000000
        k(  291) = (  -0.3888889   0.4169752   0.0000000), wk =   0.0123457
        k(  292) = (  -0.2777778   0.6094253   0.0000000), wk =   0.0000000
        k(  293) = (  -0.4444444  -0.0000000   0.0000000), wk =   0.0123457
        k(  294) = (  -0.3333333   0.1924501   0.0000000), wk =   0.0000000
        k(  295) = (  -0.2222222  -0.3849002   0.0000000), wk =   0.0061728
        k(  296) = (  -0.1111111  -0.1924501   0.0000000), wk =   0.0000000
        k(  297) = (  -0.2222222   0.3849002   0.0000000), wk =   0.0123457
        k(  298) = (  -0.1111111   0.5773503   0.0000000), wk =   0.0000000
        k(  299) = (  -0.5000000  -0.0320750   0.0000000), wk =   0.0123457
        k(  300) = (  -0.3888889   0.1603751   0.0000000), wk =   0.0000000
        k(  301) = (   0.2777778  -0.4169752   0.0000000), wk =   0.0123457
        k(  302) = (   0.3888889  -0.2245251   0.0000000), wk =   0.0000000
        k(  303) = (  -0.2222222  -0.4490502   0.0000000), wk =   0.0123457
        k(  304) = (  -0.1111111  -0.2566001   0.0000000), wk =   0.0000000
        k(  305) = (  -0.2222222   0.4490502   0.0000000), wk =   0.0123457
        k(  306) = (  -0.1111111   0.6415003   0.0000000), wk =   0.0000000
        k(  307) = (  -0.2777778   0.4169752   0.0000000), wk =   0.0123457
        k(  308) = (  -0.1666667   0.6094253   0.0000000), wk =   0.0000000
        k(  309) = (  -0.5555556  -0.0641500   0.0000000), wk =   0.0123457
        k(  310) = (  -0.4444444   0.1283001   0.0000000), wk =   0.0000000
        k(  311) = (   0.3333333  -0.4490502   0.0000000), wk =   0.0123457
        k(  312) = (   0.4444444  -0.2566001   0.0000000), wk =   0.0000000
        k(  313) = (  -0.2222222  -0.5132002   0.0000000), wk =   0.0123457
        k(  314) = (  -0.1111111  -0.3207501   0.0000000), wk =   0.0000000
        k(  315) = (  -0.2222222   0.5132002   0.0000000), wk =   0.0123457
        k(  316) = (  -0.1111111   0.7056503   0.0000000), wk =   0.0000000
        k(  317) = (  -0.3333333   0.4490502   0.0000000), wk =   0.0123457
        k(  318) = (  -0.2222222   0.6415003   0.0000000), wk =   0.0000000
        k(  319) = (   0.3888889  -0.4811252   0.0000000), wk =   0.0061728
        k(  320) = (   0.5000000  -0.2886751   0.0000000), wk =   0.0000000
        k(  321) = (  -0.2222222  -0.5773503   0.0000000), wk =   0.0123457
        k(  322) = (  -0.1111111  -0.3849002   0.0000000), wk =   0.0000000
        k(  323) = (  -0.3888889   0.4811252   0.0000000), wk =   0.0061728
        k(  324) = (  -0.2777778   0.6735753   0.0000000), wk =   0.0000000
        k(  325) = (  -0.5555556  -0.0000000   0.0000000), wk =   0.0123457
        k(  326) = (  -0.4444444   0.1924501   0.0000000), wk =   0.0000000
        k(  327) = (  -0.2777778  -0.4811252   0.0000000), wk =   0.0061728
        k(  328) = (  -0.1666667  -0.2886751   0.0000000), wk =   0.0000000
        k(  329) = (  -0.2777778   0.4811252   0.0000000), wk =   0.0123457
        k(  330) = (  -0.1666667   0.6735753   0.0000000), wk =   0.0000000
        k(  331) = (  -0.6111111  -0.0320750   0.0000000), wk =   0.0123457
        k(  332) = (  -0.5000000   0.1603751   0.0000000), wk =   0.0000000
        k(  333) = (   0.3333333  -0.5132002   0.0000000), wk =   0.0123457
        k(  334) = (   0.4444444  -0.3207501   0.0000000), wk =   0.0000000
        k(  335) = (  -0.2777778  -0.5452753   0.0000000), wk =   0.0123457
        k(  336) = (  -0.1666667  -0.3528252   0.0000000), wk =   0.0000000
        k(  337) = (  -0.2777778   0.5452753   0.0000000), wk =   0.0123457
        k(  338) = (  -0.1666667   0.7377253   0.0000000), wk =   0.0000000
        k(  339) = (  -0.3333333   0.5132002   0.0000000), wk =   0.0123457
        k(  340) = (  -0.2222222   0.7056503   0.0000000), wk =   0.0000000
        k(  341) = (  -0.3333333  -0.5773503   0.0000000), wk =   0.0061728
        k(  342) = (  -0.2222222  -0.3849002   0.0000000), wk =   0.0000000

                       cryst. coord.
        k(    1) = (   0.0000000   0.0000000   0.0000000), wk =   0.0061728
        k(    2) = (   0.1111111   0.1111111   0.0000000), wk =   0.0000000
        k(    3) = (   0.0000000   0.0555556   0.0000000), wk =   0.0123457
        k(    4) = (   0.1111111   0.1666667   0.0000000), wk =   0.0000000
        k(    5) = (   0.0000000   0.1111111   0.0000000), wk =   0.0123457
        k(    6) = (   0.1111111   0.2222222   0.0000000), wk =   0.0000000
        k(    7) = (   0.0000000   0.1666667   0.0000000), wk =   0.0123457
        k(    8) = (   0.1111111   0.2777778   0.0000000), wk =   0.0000000
        k(    9) = (   0.0000000   0.2222222   0.0000000), wk =   0.0123457
        k(   10) = (   0.1111111   0.3333333   0.0000000), wk =   0.0000000
        k(   11) = (   0.0000000   0.2777778   0.0000000), wk =   0.0123457
        k(   12) = (   0.1111111   0.3888889   0.0000000), wk =   0.0000000
        k(   13) = (   0.0000000   0.3333333   0.0000000), wk =   0.0123457
        k(   14) = (   0.1111111   0.4444444   0.0000000), wk =   0.0000000
        k(   15) = (   0.0000000   0.3888889   0.0000000), wk =   0.0123457
        k(   16) = (   0.1111111   0.5000000   0.0000000), wk =   0.0000000
        k(   17) = (   0.0000000   0.4444444   0.0000000), wk =   0.0123457
        k(   18) = (   0.1111111   0.5555556   0.0000000), wk =   0.0000000
        k(   19) = (   0.0000000  -0.5000000   0.0000000), wk =   0.0123457
        k(   20) = (   0.1111111  -0.3888889   0.0000000), wk =   0.0000000
        k(   21) = (   0.0555556   0.0555556   0.0000000), wk =   0.0061728
        k(   22) = (   0.1666667   0.1666667   0.0000000), wk =   0.0000000
        k(   23) = (   0.0555556   0.1111111   0.0000000), wk =   0.0123457
        k(   24) = (   0.1666667   0.2222222   0.0000000), wk =   0.0000000
        k(   25) = (   0.0555556   0.1666667   0.0000000), wk =   0.0123457
        k(   26) = (   0.1666667   0.2777778   0.0000000), wk =   0.0000000
        k(   27) = (   0.0555556   0.2222222   0.0000000), wk =   0.0123457
        k(   28) = (   0.1666667   0.3333333   0.0000000), wk =   0.0000000
        k(   29) = (   0.0555556   0.2777778   0.0000000), wk =   0.0123457
        k(   30) = (   0.1666667   0.3888889   0.0000000), wk =   0.0000000
        k(   31) = (   0.0555556   0.3333333   0.0000000), wk =   0.0123457
        k(   32) = (   0.1666667   0.4444444   0.0000000), wk =   0.0000000
        k(   33) = (   0.0555556   0.3888889   0.0000000), wk =   0.0123457
        k(   34) = (   0.1666667   0.5000000   0.0000000), wk =   0.0000000
        k(   35) = (   0.0555556   0.4444444   0.0000000), wk =   0.0123457
        k(   36) = (   0.1666667   0.5555556   0.0000000), wk =   0.0000000
        k(   37) = (   0.1111111   0.1111111   0.0000000), wk =   0.0061728
        k(   38) = (   0.2222222   0.2222222   0.0000000), wk =   0.0000000
        k(   39) = (   0.1111111   0.1666667   0.0000000), wk =   0.0123457
        k(   40) = (   0.2222222   0.2777778   0.0000000), wk =   0.0000000
        k(   41) = (   0.1111111   0.2222222   0.0000000), wk =   0.0123457
        k(   42) = (   0.2222222   0.3333333   0.0000000), wk =   0.0000000
        k(   43) = (   0.1111111   0.2777778   0.0000000), wk =   0.0123457
        k(   44) = (   0.2222222   0.3888889   0.0000000), wk =   0.0000000
        k(   45) = (   0.1111111   0.3333333   0.0000000), wk =   0.0123457
        k(   46) = (   0.2222222   0.4444444   0.0000000), wk =   0.0000000
        k(   47) = (   0.1111111   0.3888889   0.0000000), wk =   0.0123457
        k(   48) = (   0.2222222   0.5000000   0.0000000), wk =   0.0000000
        k(   49) = (   0.1111111   0.4444444   0.0000000), wk =   0.0123457
        k(   50) = (   0.2222222   0.5555556   0.0000000), wk =   0.0000000
        k(   51) = (   0.1666667   0.1666667   0.0000000), wk =   0.0061728
        k(   52) = (   0.2777778   0.2777778   0.0000000), wk =   0.0000000
        k(   53) = (   0.1666667   0.2222222   0.0000000), wk =   0.0123457
        k(   54) = (   0.2777778   0.3333333   0.0000000), wk =   0.0000000
        k(   55) = (   0.1666667   0.2777778   0.0000000), wk =   0.0123457
        k(   56) = (   0.2777778   0.3888889   0.0000000), wk =   0.0000000
        k(   57) = (   0.1666667   0.3333333   0.0000000), wk =   0.0123457
        k(   58) = (   0.2777778   0.4444444   0.0000000), wk =   0.0000000
        k(   59) = (   0.1666667   0.3888889   0.0000000), wk =   0.0123457
        k(   60) = (   0.2777778   0.5000000   0.0000000), wk =   0.0000000
        k(   61) = (   0.2222222   0.2222222   0.0000000), wk =   0.0061728
        k(   62) = (   0.3333333   0.3333333   0.0000000), wk =   0.0000000
        k(   63) = (   0.2222222   0.2777778   0.0000000), wk =   0.0123457
        k(   64) = (   0.3333333   0.3888889   0.0000000), wk =   0.0000000
        k(   65) = (   0.2222222   0.3333333   0.0000000), wk =   0.0123457
        k(   66) = (   0.3333333   0.4444444   0.0000000), wk =   0.0000000
        k(   67) = (   0.2222222   0.3888889   0.0000000), wk =   0.0123457
        k(   68) = (   0.3333333   0.5000000   0.0000000), wk =   0.0000000
        k(   69) = (   0.2777778   0.2777778   0.0000000), wk =   0.0061728
        k(   70) = (   0.3888889   0.3888889   0.0000000), wk =   0.0000000
        k(   71) = (   0.2777778   0.3333333   0.0000000), wk =   0.0123457
        k(   72) = (   0.3888889   0.4444444   0.0000000), wk =   0.0000000
        k(   73) = (   0.3333333   0.3333333   0.0000000), wk =   0.0061728
        k(   74) = (   0.4444444   0.4444444   0.0000000), wk =   0.0000000
        k(   75) = (  -0.0555556   0.0000000   0.0000000), wk =   0.0123457
        k(   76) = (   0.0555556   0.1111111   0.0000000), wk =   0.0000000
        k(   77) = (   0.0555556  -0.0555556   0.0000000), wk =   0.0123457
        k(   78) = (   0.1666667   0.0555556   0.0000000), wk =   0.0000000
        k(   79) = (  -0.1111111   0.0000000   0.0000000), wk =   0.0123457
        k(   80) = (   0.0000000   0.1111111   0.0000000), wk =   0.0000000
        k(   81) = (   0.1111111  -0.1111111   0.0000000), wk =   0.0123457
        k(   82) = (   0.2222222  -0.0000000   0.0000000), wk =   0.0000000
        k(   83) = (  -0.1666667   0.0000000   0.0000000), wk =   0.0123457
        k(   84) = (  -0.0555556   0.1111111   0.0000000), wk =   0.0000000
        k(   85) = (   0.1666667  -0.1666667   0.0000000), wk =   0.0123457
        k(   86) = (   0.2777778  -0.0555556   0.0000000), wk =   0.0000000
        k(   87) = (  -0.2222222   0.0000000   0.0000000), wk =   0.0123457
        k(   88) = (  -0.1111111   0.1111111   0.0000000), wk =   0.0000000
        k(   89) = (   0.2222222  -0.2222222   0.0000000), wk =   0.0123457
        k(   90) = (   0.3333333  -0.1111111   0.0000000), wk =   0.0000000
        k(   91) = (  -0.2777778   0.0000000   0.0000000), wk =   0.0123457
        k(   92) = (  -0.1666667   0.1111111   0.0000000), wk =   0.0000000
        k(   93) = (   0.2777778  -0.2777778   0.0000000), wk =   0.0123457
        k(   94) = (   0.3888889  -0.1666667   0.0000000), wk =   0.0000000
        k(   95) = (  -0.3333333   0.0000000   0.0000000), wk =   0.0123457
        k(   96) = (  -0.2222222   0.1111111   0.0000000), wk =   0.0000000
        k(   97) = (   0.3333333  -0.3333333   0.0000000), wk =   0.0123457
        k(   98) = (   0.4444444  -0.2222222   0.0000000), wk =   0.0000000
        k(   99) = (  -0.3888889  -0.0000000   0.0000000), wk =   0.0123457
        k(  100) = (  -0.2777778   0.1111111   0.0000000), wk =   0.0000000
        k(  101) = (   0.3888889  -0.3888889   0.0000000), wk =   0.0123457
        k(  102) = (   0.5000000  -0.2777778   0.0000000), wk =   0.0000000
        k(  103) = (  -0.4444444   0.0000000   0.0000000), wk =   0.0123457
        k(  104) = (  -0.3333333   0.1111111   0.0000000), wk =   0.0000000
        k(  105) = (   0.4444444  -0.4444444   0.0000000), wk =   0.0123457
        k(  106) = (   0.5555556  -0.3333333   0.0000000), wk =   0.0000000
        k(  107) = (  -0.5000000   0.5000000   0.0000000), wk =   0.0061728
        k(  108) = (  -0.3888889   0.6111111   0.0000000), wk =   0.0000000
        k(  109) = (  -0.1111111   0.0555556   0.0000000), wk =   0.0123457
        k(  110) = (   0.0000000   0.1666667   0.0000000), wk =   0.0000000
        k(  111) = (  -0.0555556  -0.0555556   0.0000000), wk =   0.0061728
        k(  112) = (   0.0555556   0.0555556   0.0000000), wk =   0.0000000
        k(  113) = (  -0.0555556   0.1111111   0.0000000), wk =   0.0123457
        k(  114) = (   0.0555556   0.2222222   0.0000000), wk =   0.0000000
        k(  115) = (  -0.1666667   0.0555556   0.0000000), wk =   0.0123457
        k(  116) = (  -0.0555556   0.1666667   0.0000000), wk =   0.0000000
        k(  117) = (   0.1111111  -0.1666667   0.0000000), wk =   0.0123457
        k(  118) = (   0.2222222  -0.0555556   0.0000000), wk =   0.0000000
        k(  119) = (  -0.0555556  -0.1111111   0.0000000), wk =   0.0123457
        k(  120) = (   0.0555556  -0.0000000   0.0000000), wk =   0.0000000
        k(  121) = (  -0.0555556   0.1666667   0.0000000), wk =   0.0123457
        k(  122) = (   0.0555556   0.2777778   0.0000000), wk =   0.0000000
        k(  123) = (  -0.1111111   0.1666667   0.0000000), wk =   0.0123457
        k(  124) = (   0.0000000   0.2777778   0.0000000), wk =   0.0000000
        k(  125) = (  -0.2222222   0.0555556   0.0000000), wk =   0.0123457
        k(  126) = (  -0.1111111   0.1666667   0.0000000), wk =   0.0000000
        k(  127) = (   0.1666667  -0.2222222   0.0000000), wk =   0.0123457
        k(  128) = (   0.2777778  -0.1111111   0.0000000), wk =   0.0000000
        k(  129) = (  -0.0555556  -0.1666667   0.0000000), wk =   0.0123457
        k(  130) = (   0.0555556  -0.0555556   0.0000000), wk =   0.0000000
        k(  131) = (  -0.0555556   0.2222222   0.0000000), wk =   0.0123457
        k(  132) = (   0.0555556   0.3333333   0.0000000), wk =   0.0000000
        k(  133) = (  -0.1666667   0.2222222   0.0000000), wk =   0.0123457
        k(  134) = (  -0.0555556   0.3333333   0.0000000), wk =   0.0000000
        k(  135) = (  -0.2777778   0.0555556   0.0000000), wk =   0.0123457
        k(  136) = (  -0.1666667   0.1666667   0.0000000), wk =   0.0000000
        k(  137) = (   0.2222222  -0.2777778   0.0000000), wk =   0.0123457
        k(  138) = (   0.3333333  -0.1666667   0.0000000), wk =   0.0000000
        k(  139) = (  -0.0555556  -0.2222222   0.0000000), wk =   0.0123457
        k(  140) = (   0.0555556  -0.1111111   0.0000000), wk =   0.0000000
        k(  141) = (  -0.0555556   0.2777778   0.0000000), wk =   0.0123457
        k(  142) = (   0.0555556   0.3888889   0.0000000), wk =   0.0000000
        k(  143) = (  -0.2222222   0.2777778   0.0000000), wk =   0.0123457
        k(  144) = (  -0.1111111   0.3888889   0.0000000), wk =   0.0000000
        k(  145) = (  -0.3333333   0.0555556   0.0000000), wk =   0.0123457
        k(  146) = (  -0.2222222   0.1666667   0.0000000), wk =   0.0000000
        k(  147) = (   0.2777778  -0.3333333   0.0000000), wk =   0.0123457
        k(  148) = (   0.3888889  -0.2222222   0.0000000), wk =   0.0000000
        k(  149) = (  -0.0555556  -0.2777778   0.0000000), wk =   0.0123457
        k(  150) = (   0.0555556  -0.1666667   0.0000000), wk =   0.0000000
        k(  151) = (  -0.0555556   0.3333333   0.0000000), wk =   0.0123457
        k(  152) = (   0.0555556   0.4444444   0.0000000), wk =   0.0000000
        k(  153) = (  -0.2777778   0.3333333   0.0000000), wk =   0.0123457
        k(  154) = (  -0.1666667   0.4444444   0.0000000), wk =   0.0000000
        k(  155) = (  -0.3888889   0.0555556   0.0000000), wk =   0.0123457
        k(  156) = (  -0.2777778   0.1666667   0.0000000), wk =   0.0000000
        k(  157) = (   0.3333333  -0.3888889   0.0000000), wk =   0.0123457
        k(  158) = (   0.4444444  -0.2777778   0.0000000), wk =   0.0000000
        k(  159) = (  -0.0555556  -0.3333333   0.0000000), wk =   0.0123457
        k(  160) = (   0.0555556  -0.2222222   0.0000000), wk =   0.0000000
        k(  161) = (  -0.0555556   0.3888889   0.0000000), wk =   0.0123457
        k(  162) = (   0.0555556   0.5000000   0.0000000), wk =   0.0000000
        k(  163) = (  -0.3333333   0.3888889   0.0000000), wk =   0.0123457
        k(  164) = (  -0.2222222   0.5000000   0.0000000), wk =   0.0000000
        k(  165) = (  -0.4444444   0.0555556   0.0000000), wk =   0.0123457
        k(  166) = (  -0.3333333   0.1666667   0.0000000), wk =   0.0000000
        k(  167) = (   0.3888889  -0.4444444   0.0000000), wk =   0.0123457
        k(  168) = (   0.5000000  -0.3333333   0.0000000), wk =   0.0000000
        k(  169) = (  -0.0555556  -0.3888889   0.0000000), wk =   0.0123457
        k(  170) = (   0.0555556  -0.2777778   0.0000000), wk =   0.0000000
        k(  171) = (  -0.0555556   0.4444444   0.0000000), wk =   0.0123457
        k(  172) = (   0.0555556   0.5555556   0.0000000), wk =   0.0000000
        k(  173) = (  -0.3888889   0.4444444   0.0000000), wk =   0.0123457
        k(  174) = (  -0.2777778   0.5555556   0.0000000), wk =   0.0000000
        k(  175) = (  -0.5000000   0.0555556   0.0000000), wk =   0.0123457
        k(  176) = (  -0.3888889   0.1666667   0.0000000), wk =   0.0000000
        k(  177) = (   0.4444444  -0.5000000   0.0000000), wk =   0.0123457
        k(  178) = (   0.5555556  -0.3888889   0.0000000), wk =   0.0000000
        k(  179) = (  -0.0555556  -0.4444444   0.0000000), wk =   0.0123457
        k(  180) = (   0.0555556  -0.3333333   0.0000000), wk =   0.0000000
        k(  181) = (  -0.0555556   0.5000000   0.0000000), wk =   0.0123457
        k(  182) = (   0.0555556   0.6111111   0.0000000), wk =   0.0000000
        k(  183) = (  -0.4444444   0.5000000   0.0000000), wk =   0.0123457
        k(  184) = (  -0.3333333   0.6111111   0.0000000), wk =   0.0000000
        k(  185) = (  -0.2222222   0.1111111   0.0000000), wk =   0.0123457
        k(  186) = (  -0.1111111   0.2222222   0.0000000), wk =   0.0000000
        k(  187) = (  -0.1111111  -0.1111111   0.0000000), wk =   0.0061728
        k(  188) = (   0.0000000  -0.0000000   0.0000000), wk =   0.0000000
        k(  189) = (  -0.1111111   0.2222222   0.0000000), wk =   0.0123457
        k(  190) = (   0.0000000   0.3333333   0.0000000), wk =   0.0000000
        k(  191) = (  -0.2777778   0.1111111   0.0000000), wk =   0.0123457
        k(  192) = (  -0.1666667   0.2222222   0.0000000), wk =   0.0000000
        k(  193) = (   0.1666667  -0.2777778   0.0000000), wk =   0.0123457
        k(  194) = (   0.2777778  -0.1666667   0.0000000), wk =   0.0000000
        k(  195) = (  -0.1111111  -0.1666667   0.0000000), wk =   0.0123457
        k(  196) = (   0.0000000  -0.0555556   0.0000000), wk =   0.0000000
        k(  197) = (  -0.1111111   0.2777778   0.0000000), wk =   0.0123457
        k(  198) = (   0.0000000   0.3888889   0.0000000), wk =   0.0000000
        k(  199) = (  -0.1666667   0.2777778   0.0000000), wk =   0.0123457
        k(  200) = (  -0.0555556   0.3888889   0.0000000), wk =   0.0000000
        k(  201) = (  -0.3333333   0.1111111   0.0000000), wk =   0.0123457
        k(  202) = (  -0.2222222   0.2222222   0.0000000), wk =   0.0000000
        k(  203) = (   0.2222222  -0.3333333   0.0000000), wk =   0.0123457
        k(  204) = (   0.3333333  -0.2222222   0.0000000), wk =   0.0000000
        k(  205) = (  -0.1111111  -0.2222222   0.0000000), wk =   0.0123457
        k(  206) = (   0.0000000  -0.1111111   0.0000000), wk =   0.0000000
        k(  207) = (  -0.1111111   0.3333333   0.0000000), wk =   0.0123457
        k(  208) = (   0.0000000   0.4444444   0.0000000), wk =   0.0000000
        k(  209) = (  -0.2222222   0.3333333   0.0000000), wk =   0.0123457
        k(  210) = (  -0.1111111   0.4444444   0.0000000), wk =   0.0000000
        k(  211) = (  -0.3888889   0.1111111   0.0000000), wk =   0.0123457
        k(  212) = (  -0.2777778   0.2222222   0.0000000), wk =   0.0000000
        k(  213) = (   0.2777778  -0.3888889   0.0000000), wk =   0.0123457
        k(  214) = (   0.3888889  -0.2777778   0.0000000), wk =   0.0000000
        k(  215) = (  -0.1111111  -0.2777778   0.0000000), wk =   0.0123457
        k(  216) = (   0.0000000  -0.1666667   0.0000000), wk =   0.0000000
        k(  217) = (  -0.1111111   0.3888889   0.0000000), wk =   0.0123457
        k(  218) = (   0.0000000   0.5000000   0.0000000), wk =   0.0000000
        k(  219) = (  -0.2777778   0.3888889   0.0000000), wk =   0.0123457
        k(  220) = (  -0.1666667   0.5000000   0.0000000), wk =   0.0000000
        k(  221) = (  -0.4444444   0.1111111   0.0000000), wk =   0.0123457
        k(  222) = (  -0.3333333   0.2222222   0.0000000), wk =   0.0000000
        k(  223) = (   0.3333333  -0.4444444   0.0000000), wk =   0.0123457
        k(  224) = (   0.4444444  -0.3333333   0.0000000), wk =   0.0000000
        k(  225) = (  -0.1111111  -0.3333333   0.0000000), wk =   0.0123457
        k(  226) = (   0.0000000  -0.2222222   0.0000000), wk =   0.0000000
        k(  227) = (  -0.1111111   0.4444444   0.0000000), wk =   0.0123457
        k(  228) = (   0.0000000   0.5555556   0.0000000), wk =   0.0000000
        k(  229) = (  -0.3333333   0.4444444   0.0000000), wk =   0.0123457
        k(  230) = (  -0.2222222   0.5555556   0.0000000), wk =   0.0000000
        k(  231) = (  -0.5000000   0.1111111   0.0000000), wk =   0.0123457
        k(  232) = (  -0.3888889   0.2222222   0.0000000), wk =   0.0000000
        k(  233) = (   0.3888889  -0.5000000   0.0000000), wk =   0.0123457
        k(  234) = (   0.5000000  -0.3888889   0.0000000), wk =   0.0000000
        k(  235) = (  -0.1111111  -0.3888889   0.0000000), wk =   0.0123457
        k(  236) = (   0.0000000  -0.2777778   0.0000000), wk =   0.0000000
        k(  237) = (  -0.1111111   0.5000000   0.0000000), wk =   0.0123457
        k(  238) = (   0.0000000   0.6111111   0.0000000), wk =   0.0000000
        k(  239) = (  -0.3888889   0.5000000   0.0000000), wk =   0.0123457
        k(  240) = (  -0.2777778   0.6111111   0.0000000), wk =   0.0000000
        k(  241) = (   0.4444444  -0.5555556   0.0000000), wk =   0.0061728
        k(  242) = (   0.5555556  -0.4444444   0.0000000), wk =   0.0000000
        k(  243) = (  -0.1111111  -0.4444444   0.0000000), wk =   0.0123457
        k(  244) = (   0.0000000  -0.3333333   0.0000000), wk =   0.0000000
        k(  245) = (  -0.4444444   0.5555556   0.0000000), wk =   0.0061728
        k(  246) = (  -0.3333333   0.6666667   0.0000000), wk =   0.0000000
        k(  247) = (  -0.3333333   0.1666667   0.0000000), wk =   0.0123457
        k(  248) = (  -0.2222222   0.2777778   0.0000000), wk =   0.0000000
        k(  249) = (  -0.1666667  -0.1666667   0.0000000), wk =   0.0061728
        k(  250) = (  -0.0555556  -0.0555556   0.0000000), wk =   0.0000000
        k(  251) = (  -0.1666667   0.3333333   0.0000000), wk =   0.0123457
        k(  252) = (  -0.0555556   0.4444444   0.0000000), wk =   0.0000000
        k(  253) = (  -0.3888889   0.1666667   0.0000000), wk =   0.0123457
        k(  254) = (  -0.2777778   0.2777778   0.0000000), wk =   0.0000000
        k(  255) = (   0.2222222  -0.3888889   0.0000000), wk =   0.0123457
        k(  256) = (   0.3333333  -0.2777778   0.0000000), wk =   0.0000000
        k(  257) = (  -0.1666667  -0.2222222   0.0000000), wk =   0.0123457
        k(  258) = (  -0.0555556  -0.1111111   0.0000000), wk =   0.0000000
        k(  259) = (  -0.1666667   0.3888889   0.0000000), wk =   0.0123457
        k(  260) = (  -0.0555556   0.5000000   0.0000000), wk =   0.0000000
        k(  261) = (  -0.2222222   0.3888889   0.0000000), wk =   0.0123457
        k(  262) = (  -0.1111111   0.5000000   0.0000000), wk =   0.0000000
        k(  263) = (  -0.4444444   0.1666667   0.0000000), wk =   0.0123457
        k(  264) = (  -0.3333333   0.2777778   0.0000000), wk =   0.0000000
        k(  265) = (   0.2777778  -0.4444444   0.0000000), wk =   0.0123457
        k(  266) = (   0.3888889  -0.3333333   0.0000000), wk =   0.0000000
        k(  267) = (  -0.1666667  -0.2777778   0.0000000), wk =   0.0123457
        k(  268) = (  -0.0555556  -0.1666667   0.0000000), wk =   0.0000000
        k(  269) = (  -0.1666667   0.4444444   0.0000000), wk =   0.0123457
        k(  270) = (  -0.0555556   0.5555556   0.0000000), wk =   0.0000000
        k(  271) = (  -0.2777778   0.4444444   0.0000000), wk =   0.0123457
        k(  272) = (  -0.1666667   0.5555556   0.0000000), wk =   0.0000000
        k(  273) = (  -0.5000000   0.1666667   0.0000000), wk =   0.0123457
        k(  274) = (  -0.3888889   0.2777778   0.0000000), wk =   0.0000000
        k(  275) = (   0.3333333  -0.5000000   0.0000000), wk =   0.0123457
        k(  276) = (   0.4444444  -0.3888889   0.0000000), wk =   0.0000000
        k(  277) = (  -0.1666667  -0.3333333   0.0000000), wk =   0.0123457
        k(  278) = (  -0.0555556  -0.2222222   0.0000000), wk =   0.0000000
        k(  279) = (  -0.1666667   0.5000000   0.0000000), wk =   0.0123457
        k(  280) = (  -0.0555556   0.6111111   0.0000000), wk =   0.0000000
        k(  281) = (  -0.3333333   0.5000000   0.0000000), wk =   0.0123457
        k(  282) = (  -0.2222222   0.6111111   0.0000000), wk =   0.0000000
        k(  283) = (  -0.5555556   0.1666667   0.0000000), wk =   0.0123457
        k(  284) = (  -0.4444444   0.2777778   0.0000000), wk =   0.0000000
        k(  285) = (   0.3888889  -0.5555556   0.0000000), wk =   0.0123457
        k(  286) = (   0.5000000  -0.4444444   0.0000000), wk =   0.0000000
        k(  287) = (  -0.1666667  -0.3888889   0.0000000), wk =   0.0123457
        k(  288) = (  -0.0555556  -0.2777778   0.0000000), wk =   0.0000000
        k(  289) = (  -0.1666667   0.5555556   0.0000000), wk =   0.0123457
        k(  290) = (  -0.0555556   0.6666667   0.0000000), wk =   0.0000000
        k(  291) = (  -0.3888889   0.5555556   0.0000000), wk =   0.0123457
        k(  292) = (  -0.2777778   0.6666667   0.0000000), wk =   0.0000000
        k(  293) = (  -0.4444444   0.2222222   0.0000000), wk =   0.0123457
        k(  294) = (  -0.3333333   0.3333333   0.0000000), wk =   0.0000000
        k(  295) = (  -0.2222222  -0.2222222   0.0000000), wk =   0.0061728
        k(  296) = (  -0.1111111  -0.1111111   0.0000000), wk =   0.0000000
        k(  297) = (  -0.2222222   0.4444444   0.0000000), wk =   0.0123457
        k(  298) = (  -0.1111111   0.5555556   0.0000000), wk =   0.0000000
        k(  299) = (  -0.5000000   0.2222222   0.0000000), wk =   0.0123457
        k(  300) = (  -0.3888889   0.3333333   0.0000000), wk =   0.0000000
        k(  301) = (   0.2777778  -0.5000000   0.0000000), wk =   0.0123457
        k(  302) = (   0.3888889  -0.3888889   0.0000000), wk =   0.0000000
        k(  303) = (  -0.2222222  -0.2777778   0.0000000), wk =   0.0123457
        k(  304) = (  -0.1111111  -0.1666667   0.0000000), wk =   0.0000000
        k(  305) = (  -0.2222222   0.5000000   0.0000000), wk =   0.0123457
        k(  306) = (  -0.1111111   0.6111111   0.0000000), wk =   0.0000000
        k(  307) = (  -0.2777778   0.5000000   0.0000000), wk =   0.0123457
        k(  308) = (  -0.1666667   0.6111111   0.0000000), wk =   0.0000000
        k(  309) = (  -0.5555556   0.2222222   0.0000000), wk =   0.0123457
        k(  310) = (  -0.4444444   0.3333333   0.0000000), wk =   0.0000000
        k(  311) = (   0.3333333  -0.5555556   0.0000000), wk =   0.0123457
        k(  312) = (   0.4444444  -0.4444444   0.0000000), wk =   0.0000000
        k(  313) = (  -0.2222222  -0.3333333   0.0000000), wk =   0.0123457
        k(  314) = (  -0.1111111  -0.2222222   0.0000000), wk =   0.0000000
        k(  315) = (  -0.2222222   0.5555556   0.0000000), wk =   0.0123457
        k(  316) = (  -0.1111111   0.6666667   0.0000000), wk =   0.0000000
        k(  317) = (  -0.3333333   0.5555556   0.0000000), wk =   0.0123457
        k(  318) = (  -0.2222222   0.6666667   0.0000000), wk =   0.0000000
        k(  319) = (   0.3888889  -0.6111111   0.0000000), wk =   0.0061728
        k(  320) = (   0.5000000  -0.5000000   0.0000000), wk =   0.0000000
        k(  321) = (  -0.2222222  -0.3888889   0.0000000), wk =   0.0123457
        k(  322) = (  -0.1111111  -0.2777778   0.0000000), wk =   0.0000000
        k(  323) = (  -0.3888889   0.6111111   0.0000000), wk =   0.0061728
        k(  324) = (  -0.2777778   0.7222222   0.0000000), wk =   0.0000000
        k(  325) = (  -0.5555556   0.2777778   0.0000000), wk =   0.0123457
        k(  326) = (  -0.4444444   0.3888889   0.0000000), wk =   0.0000000
        k(  327) = (  -0.2777778  -0.2777778   0.0000000), wk =   0.0061728
        k(  328) = (  -0.1666667  -0.1666667   0.0000000), wk =   0.0000000
        k(  329) = (  -0.2777778   0.5555556   0.0000000), wk =   0.0123457
        k(  330) = (  -0.1666667   0.6666667   0.0000000), wk =   0.0000000
        k(  331) = (  -0.6111111   0.2777778   0.0000000), wk =   0.0123457
        k(  332) = (  -0.5000000   0.3888889   0.0000000), wk =   0.0000000
        k(  333) = (   0.3333333  -0.6111111   0.0000000), wk =   0.0123457
        k(  334) = (   0.4444444  -0.5000000   0.0000000), wk =   0.0000000
        k(  335) = (  -0.2777778  -0.3333333   0.0000000), wk =   0.0123457
        k(  336) = (  -0.1666667  -0.2222222   0.0000000), wk =   0.0000000
        k(  337) = (  -0.2777778   0.6111111   0.0000000), wk =   0.0123457
        k(  338) = (  -0.1666667   0.7222222   0.0000000), wk =   0.0000000
        k(  339) = (  -0.3333333   0.6111111   0.0000000), wk =   0.0123457
        k(  340) = (  -0.2222222   0.7222222   0.0000000), wk =   0.0000000
        k(  341) = (  -0.3333333  -0.3333333   0.0000000), wk =   0.0061728
        k(  342) = (  -0.2222222  -0.2222222   0.0000000), wk =   0.0000000

     Dense  grid:  1108055 G-vectors     FFT dimensions: (  72,  72, 500)

     Dynamical RAM for                 wfc:       3.96 MB

     Dynamical RAM for     wfc (w. buffer):       3.96 MB

     Dynamical RAM for           str. fact:       4.23 MB

     Dynamical RAM for           local pot:       0.53 MB

     Dynamical RAM for          nlocal pot:       8.46 MB

     Dynamical RAM for                qrad:       2.27 MB

     Dynamical RAM for          rho,v,vnew:      13.82 MB

     Dynamical RAM for           G-vectors:       8.98 MB

     Dynamical RAM for          h,s,v(r/c):       0.16 MB

     Dynamical RAM for          <psi|beta>:       0.01 MB

     Dynamical RAM for                 psi:      15.86 MB

     Dynamical RAM for                hpsi:      15.86 MB

     Dynamical RAM for                spsi:      15.86 MB

     Dynamical RAM for      wfcinit/wfcrot:       8.46 MB

     Dynamical RAM for           addusdens:      95.10 MB

     Estimated static dynamical RAM per process >      61.04 MB

     Estimated max dynamical RAM per process >     156.14 MB

     Estimated total dynamical RAM >       1.22 GB
 ----2D----2D----2D----2D----2D----2D----2D----2D----2D----2D----2D----2D
  The code is running with the 2D cutoff
  Please refer to:
  Sohier, T., Calandra, M., & Mauri, F. (2017), 
  Density functional perturbation theory for gated two-dimensional heterostructures:
  Theoretical developments and application to flexural phonons in graphene.
  Physical Review B, 96(7), 75448. https://doi.org/10.1103/PhysRevB.96.075448
 ----2D----2D----2D----2D----2D----2D----2D----2D----2D----2D----2D----2D

     The potential is recalculated from file :
     /home/ext_chineason_graduate_utm_my/fgc/tmp/6.11/_ph0/fgc.save/charge-density


     negative rho (up, down):  5.457E-06 0.000E+00
     Starting wfcs are   16 atomic wfcs

     Band Structure Calculation
     Davidson diagonalization with overlap

     Computing kpt #:     1
     total cpu time spent up to now is       10.8 secs

     Computing kpt #:     2
     total cpu time spent up to now is       25.1 secs

     Computing kpt #:     3
     total cpu time spent up to now is       41.1 secs

     Computing kpt #:     4
     total cpu time spent up to now is       54.0 secs

     Computing kpt #:     5
     total cpu time spent up to now is       70.8 secs

     Computing kpt #:     6
     total cpu time spent up to now is       86.8 secs

     Computing kpt #:     7
     total cpu time spent up to now is       96.6 secs

     Computing kpt #:     8
     total cpu time spent up to now is      115.1 secs

     Computing kpt #:     9
     total cpu time spent up to now is      126.2 secs

     Computing kpt #:    10
     total cpu time spent up to now is      141.2 secs

     Computing kpt #:    11
     total cpu time spent up to now is      155.3 secs

     Computing kpt #:    12
     total cpu time spent up to now is      169.3 secs

     Computing kpt #:    13
     total cpu time spent up to now is      185.0 secs

     Computing kpt #:    14
     total cpu time spent up to now is      197.5 secs

     Computing kpt #:    15
     total cpu time spent up to now is      204.6 secs

     Computing kpt #:    16
     total cpu time spent up to now is      217.1 secs

     Computing kpt #:    17
     total cpu time spent up to now is      223.9 secs

     Computing kpt #:    18
     total cpu time spent up to now is      237.9 secs

     Computing kpt #:    19
     total cpu time spent up to now is      246.7 secs

     Computing kpt #:    20
     total cpu time spent up to now is      261.9 secs

     Computing kpt #:    21
     total cpu time spent up to now is      279.0 secs

     Computing kpt #:    22
     total cpu time spent up to now is      290.0 secs

     Computing kpt #:    23
     total cpu time spent up to now is      302.5 secs

     Computing kpt #:    24
     total cpu time spent up to now is      313.0 secs

     Computing kpt #:    25
     total cpu time spent up to now is      324.8 secs

     Computing kpt #:    26
     total cpu time spent up to now is      335.0 secs

     Computing kpt #:    27
     total cpu time spent up to now is      352.8 secs

     Computing kpt #:    28
     total cpu time spent up to now is      363.4 secs

     Computing kpt #:    29
     total cpu time spent up to now is      377.7 secs

     Computing kpt #:    30
     total cpu time spent up to now is      392.4 secs

     Computing kpt #:    31
     total cpu time spent up to now is      413.1 secs

     Computing kpt #:    32
     total cpu time spent up to now is      426.2 secs

     Computing kpt #:    33
     total cpu time spent up to now is      444.4 secs

     Computing kpt #:    34
     total cpu time spent up to now is      457.1 secs

     Computing kpt #:    35
     total cpu time spent up to now is      471.5 secs

     Computing kpt #:    36
     total cpu time spent up to now is      480.9 secs

     Computing kpt #:    37
     total cpu time spent up to now is      492.8 secs

     Computing kpt #:    38
     total cpu time spent up to now is      505.1 secs

     Computing kpt #:    39
     total cpu time spent up to now is      515.0 secs

     Computing kpt #:    40
     total cpu time spent up to now is      528.2 secs

     Computing kpt #:    41
     total cpu time spent up to now is      540.9 secs

     Computing kpt #:    42
     total cpu time spent up to now is      552.3 secs

     Computing kpt #:    43
     total cpu time spent up to now is      570.9 secs

     Computing kpt #:    44
     total cpu time spent up to now is      584.4 secs

     Computing kpt #:    45
     total cpu time spent up to now is      600.9 secs

     Computing kpt #:    46
     total cpu time spent up to now is      612.6 secs

     Computing kpt #:    47
     total cpu time spent up to now is      623.7 secs

     Computing kpt #:    48
     total cpu time spent up to now is      635.6 secs

     Computing kpt #:    49
     total cpu time spent up to now is      646.5 secs

     Computing kpt #:    50
     total cpu time spent up to now is      656.3 secs

     Computing kpt #:    51
     total cpu time spent up to now is      669.0 secs

     Computing kpt #:    52
     total cpu time spent up to now is      679.4 secs

     Computing kpt #:    53
     total cpu time spent up to now is      690.4 secs

     Computing kpt #:    54
     total cpu time spent up to now is      702.3 secs

     Computing kpt #:    55
     total cpu time spent up to now is      714.5 secs

     Computing kpt #:    56
     total cpu time spent up to now is      724.9 secs

     Computing kpt #:    57
     total cpu time spent up to now is      736.0 secs

     Computing kpt #:    58
     total cpu time spent up to now is      747.7 secs

     Computing kpt #:    59
     total cpu time spent up to now is      761.4 secs

     Computing kpt #:    60
     total cpu time spent up to now is      774.2 secs

     Computing kpt #:    61
     total cpu time spent up to now is      785.3 secs

     Computing kpt #:    62
     total cpu time spent up to now is      794.5 secs

     Computing kpt #:    63
     total cpu time spent up to now is      806.7 secs

     Computing kpt #:    64
     total cpu time spent up to now is      819.9 secs

     Computing kpt #:    65
     total cpu time spent up to now is      830.3 secs

     Computing kpt #:    66
     total cpu time spent up to now is      842.2 secs

     Computing kpt #:    67
     total cpu time spent up to now is      853.8 secs

     Computing kpt #:    68
     total cpu time spent up to now is      864.0 secs

     Computing kpt #:    69
     total cpu time spent up to now is      876.5 secs

     Computing kpt #:    70
     total cpu time spent up to now is      887.6 secs

     Computing kpt #:    71
     total cpu time spent up to now is      898.5 secs

     Computing kpt #:    72
     total cpu time spent up to now is      913.2 secs

     Computing kpt #:    73
     total cpu time spent up to now is      921.8 secs

     Computing kpt #:    74
     total cpu time spent up to now is      933.8 secs

     Computing kpt #:    75
     total cpu time spent up to now is      948.5 secs

     Computing kpt #:    76
     total cpu time spent up to now is      958.3 secs

     Computing kpt #:    77
     total cpu time spent up to now is      973.3 secs

     Computing kpt #:    78
     total cpu time spent up to now is      988.7 secs

     Computing kpt #:    79
     total cpu time spent up to now is     1006.1 secs

     Computing kpt #:    80
     total cpu time spent up to now is     1023.0 secs

     Computing kpt #:    81
     total cpu time spent up to now is     1041.6 secs

     Computing kpt #:    82
     total cpu time spent up to now is     1055.7 secs

     Computing kpt #:    83
     total cpu time spent up to now is     1069.0 secs

     Computing kpt #:    84
     total cpu time spent up to now is     1087.9 secs

     Computing kpt #:    85
     total cpu time spent up to now is     1098.4 secs

     Computing kpt #:    86
     total cpu time spent up to now is     1111.3 secs

     Computing kpt #:    87
     total cpu time spent up to now is     1123.1 secs

     Computing kpt #:    88
     total cpu time spent up to now is     1140.6 secs

     Computing kpt #:    89
     total cpu time spent up to now is     1151.5 secs

     Computing kpt #:    90
     total cpu time spent up to now is     1166.9 secs

     Computing kpt #:    91
     total cpu time spent up to now is     1180.5 secs

     Computing kpt #:    92
     total cpu time spent up to now is     1189.7 secs

     Computing kpt #:    93
     total cpu time spent up to now is     1202.2 secs

     Computing kpt #:    94
     total cpu time spent up to now is     1211.7 secs

     Computing kpt #:    95
     total cpu time spent up to now is     1225.4 secs

     Computing kpt #:    96
     total cpu time spent up to now is     1236.8 secs

     Computing kpt #:    97
     total cpu time spent up to now is     1249.6 secs

     Computing kpt #:    98
     total cpu time spent up to now is     1259.1 secs

     Computing kpt #:    99
     total cpu time spent up to now is     1265.6 secs

     Computing kpt #:   100
     total cpu time spent up to now is     1276.0 secs

     Computing kpt #:   101
     total cpu time spent up to now is     1282.8 secs

     Computing kpt #:   102
     total cpu time spent up to now is     1295.8 secs

     Computing kpt #:   103
     total cpu time spent up to now is     1303.1 secs

     Computing kpt #:   104
     total cpu time spent up to now is     1316.1 secs

     Computing kpt #:   105
     total cpu time spent up to now is     1322.6 secs

     Computing kpt #:   106
     total cpu time spent up to now is     1333.0 secs

     Computing kpt #:   107
     total cpu time spent up to now is     1339.9 secs

     Computing kpt #:   108
     total cpu time spent up to now is     1350.8 secs

     Computing kpt #:   109
     total cpu time spent up to now is     1371.6 secs

     Computing kpt #:   110
     total cpu time spent up to now is     1380.1 secs

     Computing kpt #:   111
     total cpu time spent up to now is     1399.2 secs

     Computing kpt #:   112
     total cpu time spent up to now is     1416.7 secs

     Computing kpt #:   113
     total cpu time spent up to now is     1434.3 secs

     Computing kpt #:   114
     total cpu time spent up to now is     1450.5 secs

     Computing kpt #:   115
     total cpu time spent up to now is     1461.2 secs

     Computing kpt #:   116
     total cpu time spent up to now is     1470.7 secs

     Computing kpt #:   117
     total cpu time spent up to now is     1484.4 secs

     Computing kpt #:   118
     total cpu time spent up to now is     1495.5 secs

     Computing kpt #:   119
     total cpu time spent up to now is     1504.8 secs

     Computing kpt #:   120
     total cpu time spent up to now is     1519.5 secs

     Computing kpt #:   121
     total cpu time spent up to now is     1528.8 secs

     Computing kpt #:   122
     total cpu time spent up to now is     1543.5 secs

     Computing kpt #:   123
     total cpu time spent up to now is     1553.2 secs

     Computing kpt #:   124
     total cpu time spent up to now is     1564.5 secs

     Computing kpt #:   125
     total cpu time spent up to now is     1575.4 secs

     Computing kpt #:   126
     total cpu time spent up to now is     1585.2 secs

     Computing kpt #:   127
     total cpu time spent up to now is     1596.2 secs

     Computing kpt #:   128
     total cpu time spent up to now is     1606.9 secs

     Computing kpt #:   129
     total cpu time spent up to now is     1617.5 secs

     Computing kpt #:   130
     total cpu time spent up to now is     1631.5 secs

     Computing kpt #:   131
     total cpu time spent up to now is     1645.9 secs

     Computing kpt #:   132
     total cpu time spent up to now is     1661.8 secs

     Computing kpt #:   133
     total cpu time spent up to now is     1672.9 secs

     Computing kpt #:   134
     total cpu time spent up to now is     1686.4 secs

     Computing kpt #:   135
     total cpu time spent up to now is     1699.7 secs

     Computing kpt #:   136
     total cpu time spent up to now is     1708.0 secs

     Computing kpt #:   137
     total cpu time spent up to now is     1720.9 secs

     Computing kpt #:   138
     total cpu time spent up to now is     1733.3 secs

     Computing kpt #:   139
     total cpu time spent up to now is     1749.6 secs

     Computing kpt #:   140
     total cpu time spent up to now is     1768.0 secs

     Computing kpt #:   141
     total cpu time spent up to now is     1780.3 secs

     Computing kpt #:   142
     total cpu time spent up to now is     1796.0 secs

     Computing kpt #:   143
     total cpu time spent up to now is     1809.3 secs

     Computing kpt #:   144
     total cpu time spent up to now is     1823.2 secs

     Computing kpt #:   145
     total cpu time spent up to now is     1836.3 secs

     Computing kpt #:   146
     total cpu time spent up to now is     1846.7 secs

     Computing kpt #:   147
[...]
        k(  302) = (   0.3888889  -0.3888889   0.0000000), wk =   0.0000000
        k(  303) = (  -0.2222222  -0.2777778   0.0000000), wk =   0.0123457
        k(  304) = (  -0.1111111  -0.1666667   0.0000000), wk =   0.0000000
        k(  305) = (  -0.2222222   0.5000000   0.0000000), wk =   0.0123457
        k(  306) = (  -0.1111111   0.6111111   0.0000000), wk =   0.0000000
        k(  307) = (  -0.2777778   0.5000000   0.0000000), wk =   0.0123457
        k(  308) = (  -0.1666667   0.6111111   0.0000000), wk =   0.0000000
        k(  309) = (  -0.5555556   0.2222222   0.0000000), wk =   0.0123457
        k(  310) = (  -0.4444444   0.3333333   0.0000000), wk =   0.0000000
        k(  311) = (   0.3333333  -0.5555556   0.0000000), wk =   0.0123457
        k(  312) = (   0.4444444  -0.4444444   0.0000000), wk =   0.0000000
        k(  313) = (  -0.2222222  -0.3333333   0.0000000), wk =   0.0123457
        k(  314) = (  -0.1111111  -0.2222222   0.0000000), wk =   0.0000000
        k(  315) = (  -0.2222222   0.5555556   0.0000000), wk =   0.0123457
        k(  316) = (  -0.1111111   0.6666667   0.0000000), wk =   0.0000000
        k(  317) = (  -0.3333333   0.5555556   0.0000000), wk =   0.0123457
        k(  318) = (  -0.2222222   0.6666667   0.0000000), wk =   0.0000000
        k(  319) = (   0.3888889  -0.6111111   0.0000000), wk =   0.0061728
        k(  320) = (   0.5000000  -0.5000000   0.0000000), wk =   0.0000000
        k(  321) = (  -0.2222222  -0.3888889   0.0000000), wk =   0.0123457
        k(  322) = (  -0.1111111  -0.2777778   0.0000000), wk =   0.0000000
        k(  323) = (  -0.3888889   0.6111111   0.0000000), wk =   0.0061728
        k(  324) = (  -0.2777778   0.7222222   0.0000000), wk =   0.0000000
        k(  325) = (  -0.5555556   0.2777778   0.0000000), wk =   0.0123457
        k(  326) = (  -0.4444444   0.3888889   0.0000000), wk =   0.0000000
        k(  327) = (  -0.2777778  -0.2777778   0.0000000), wk =   0.0061728
        k(  328) = (  -0.1666667  -0.1666667   0.0000000), wk =   0.0000000
        k(  329) = (  -0.2777778   0.5555556   0.0000000), wk =   0.0123457
        k(  330) = (  -0.1666667   0.6666667   0.0000000), wk =   0.0000000
        k(  331) = (  -0.6111111   0.2777778   0.0000000), wk =   0.0123457
        k(  332) = (  -0.5000000   0.3888889   0.0000000), wk =   0.0000000
        k(  333) = (   0.3333333  -0.6111111   0.0000000), wk =   0.0123457
        k(  334) = (   0.4444444  -0.5000000   0.0000000), wk =   0.0000000
        k(  335) = (  -0.2777778  -0.3333333   0.0000000), wk =   0.0123457
        k(  336) = (  -0.1666667  -0.2222222   0.0000000), wk =   0.0000000
        k(  337) = (  -0.2777778   0.6111111   0.0000000), wk =   0.0123457
        k(  338) = (  -0.1666667   0.7222222   0.0000000), wk =   0.0000000
        k(  339) = (  -0.3333333   0.6111111   0.0000000), wk =   0.0123457
        k(  340) = (  -0.2222222   0.7222222   0.0000000), wk =   0.0000000
        k(  341) = (  -0.3333333  -0.3333333   0.0000000), wk =   0.0061728
        k(  342) = (  -0.2222222  -0.2222222   0.0000000), wk =   0.0000000

     PseudoPot. # 1 for C  read from file:
     ../pseudo/c_pbe_v1.2.uspp.F.UPF
     MD5 check sum: d1aef80898a10debaa0f26306b886e00
     Pseudo is Ultrasoft + core correction, Zval =  4.0
     Generated by new atomic code, or converted to UPF format
     Using radial grid of  721 points,  4 beta functions with: 
                l(1) =   0
                l(2) =   0
                l(3) =   1
                l(4) =   1
     Q(r) pseudized with  8 coefficients,  rinner =    1.100   1.100   1.100


     PseudoPot. # 2 for F  read from file:
     ../pseudo/f_pbe_v1.4.uspp.F.UPF
     MD5 check sum: 4c38b6a325caf53ec0e86aed9459de46
     Pseudo is Ultrasoft, Zval =  7.0
     Generated by new atomic code, or converted to UPF format
     Using radial grid of  799 points,  4 beta functions with: 
                l(1) =   0
                l(2) =   0
                l(3) =   1
                l(4) =   1
     Q(r) pseudized with  8 coefficients,  rinner =    0.950   0.950   0.950


     point group C_2  (2)   
     there are  2 classes
     the character table:

       E     C2   
A      1.00  1.00
B      1.00 -1.00

     the symmetry operations in each class and the name of the first element:

     E        1
          identity                                               
     C2       2
          180 deg rotation - cryst. axis [1,1,0]                 


     Atomic displacements:
     There are   12 irreducible representations

     Representation     1      1 modes -  Not done in this run
     Irreps are as follows:

                     mode #   1
                     (  -0.00000  -0.00000   ) 
                     (  -0.00000  -0.00000   ) 
                     (  -0.00000  -0.00000   ) 
                     (  -0.00000  -0.00000   ) 
                     (  -0.00000  -0.00000   ) 
                     (  -0.00000  -0.00000   ) 
                     (  -0.18626  -0.00000   ) 
                     (  -0.41945   0.53772   ) 
                     (  -0.00947   0.01165   ) 
                     (   0.09241   0.53036   ) 
                     (  -0.11140   0.44445   ) 
                     (  -0.00023  -0.01501   ) 

     Representation     2      1 modes -  Not done in this run
     Irreps are as follows:

                     mode #   2
                     (  -0.36108  -0.00000   ) 
                     (   0.54592   0.24284   ) 
                     (  -0.04593  -0.10251   ) 
                     (   0.63566  -0.25884   ) 
                     (   0.04760   0.11856   ) 
                     (   0.10108   0.04900   ) 
                     (  -0.00000  -0.00000   ) 
                     (  -0.00000  -0.00000   ) 
                     (  -0.00000  -0.00000   ) 
                     (  -0.00000  -0.00000   ) 
                     (  -0.00000  -0.00000   ) 
                     (  -0.00000  -0.00000   ) 

     Representation     3      1 modes -  Not done in this run
     Irreps are as follows:

                     mode #   3
                     (  -0.00000   0.00000   ) 
                     (  -0.00000   0.00000   ) 
                     (  -0.00000   0.00000   ) 
                     (  -0.00000   0.00000   ) 
                     (  -0.00000   0.00000   ) 
                     (  -0.00000   0.00000   ) 
                     (  -0.15261  -0.00000   ) 
                     (   0.01673  -0.02056   ) 
                     (   0.41567  -0.55066   ) 
                     (   0.05811  -0.07200   ) 
                     (  -0.10144   0.07170   ) 
                     (   0.03553   0.68902   ) 

     Representation     4      1 modes -  Not done in this run
     Irreps are as follows:

                     mode #   4
                     (  -0.10007   0.00000   ) 
                     (   0.06988  -0.06138   ) 
                     (   0.62623   0.29861   ) 
                     (   0.05052  -0.11178   ) 
                     (  -0.05935   0.00974   ) 
                     (  -0.67167   0.17378   ) 
                     (   0.00000  -0.00000   ) 
                     (   0.00000  -0.00000   ) 
                     (   0.00000  -0.00000   ) 
                     (   0.00000  -0.00000   ) 
                     (   0.00000  -0.00000   ) 
                     (   0.00000  -0.00000   ) 

     Representation     5      1 modes -  Not done in this run
     Irreps are as follows:

                     mode #   5
                     (  -0.00000  -0.00000   ) 
                     (  -0.00000  -0.00000   ) 
                     (  -0.00000  -0.00000   ) 
                     (  -0.00000  -0.00000   ) 
                     (  -0.00000  -0.00000   ) 
                     (  -0.00000  -0.00000   ) 
                     (  -0.66484  -0.00000   ) 
                     (   0.11367  -0.14593   ) 
                     (  -0.09276   0.12314   ) 
                     (   0.24883  -0.37376   ) 
                     (  -0.44443   0.27767   ) 
                     (  -0.00809  -0.15395   ) 

     Representation     6      1 modes -  Not done in this run
     Irreps are as follows:

                     mode #   6
                     (  -0.59967  -0.00000   ) 
                     (  -0.34038  -0.13598   ) 
                     (  -0.07684   0.01189   ) 
                     (  -0.07182  -0.09346   ) 
                     (  -0.57191   0.39113   ) 
                     (   0.05122  -0.05851   ) 
                     (   0.00000  -0.00000   ) 
                     (   0.00000  -0.00000   ) 
                     (   0.00000  -0.00000   ) 
                     (   0.00000  -0.00000   ) 
                     (   0.00000  -0.00000   ) 
                     (   0.00000  -0.00000   ) 

     Representation     7      1 modes -  Not done in this run
     Irreps are as follows:

                     mode #   7
                     (  -0.11812  -0.00000   ) 
                     (  -0.65677  -0.19083   ) 
                     (   0.12467  -0.05235   ) 
                     (   0.49670  -0.20104   ) 
                     (   0.39125  -0.20374   ) 
                     (   0.06186  -0.12024   ) 
                     (  -0.00000  -0.00000   ) 
                     (  -0.00000  -0.00000   ) 
                     (  -0.00000  -0.00000   ) 
                     (  -0.00000  -0.00000   ) 
                     (  -0.00000  -0.00000   ) 
                     (  -0.00000  -0.00000   ) 

     Representation     8      1 modes -  Not done in this run
     Irreps are as follows:

                     mode #   8
                     (  -0.00000  -0.00000   ) 
                     (  -0.00000  -0.00000   ) 
                     (  -0.00000  -0.00000   ) 
                     (  -0.00000  -0.00000   ) 
                     (  -0.00000  -0.00000   ) 
                     (  -0.00000  -0.00000   ) 
                     (  -0.52368  -0.00000   ) 
                     (   0.46548   0.07087   ) 
                     (   0.06307  -0.00942   ) 
                     (  -0.54884   0.38041   ) 
                     (   0.14635  -0.16906   ) 
                     (   0.04226  -0.04775   ) 

     Representation     9      1 modes -  Not done in this run
     Irreps are as follows:

                     mode #   9
                     (  -0.00000  -0.00000   ) 
                     (  -0.00000  -0.00000   ) 
                     (  -0.00000  -0.00000   ) 
                     (  -0.00000  -0.00000   ) 
                     (  -0.00000  -0.00000   ) 
                     (  -0.00000  -0.00000   ) 
                     (  -0.09853  -0.00000   ) 
                     (  -0.01376  -0.00999   ) 
                     (  -0.68146   0.16004   ) 
                     (  -0.02305   0.03063   ) 
                     (   0.07385  -0.05545   ) 
                     (  -0.41916   0.56063   ) 

     Representation    10      1 modes -  Not done in this run
     Irreps are as follows:

                     mode #  10
                     (  -0.02950  -0.00000   ) 
                     (   0.14079   0.01736   ) 
                     (   0.58508  -0.36971   ) 
                     (  -0.11437   0.07634   ) 
                     (  -0.03994   0.02218   ) 
                     (   0.21056  -0.65930   ) 
                     (  -0.00000  -0.00000   ) 
                     (  -0.00000  -0.00000   ) 
                     (  -0.00000  -0.00000   ) 
                     (  -0.00000  -0.00000   ) 
                     (  -0.00000  -0.00000   ) 
                     (  -0.00000  -0.00000   ) 

     Representation    11      1 modes -  To be done
     Irreps are as follows:

                     mode #  11
                     (  -0.69655  -0.00000   ) 
                     (   0.10542   0.03163   ) 
                     (  -0.04592   0.02453   ) 
                     (  -0.35433   0.26157   ) 
                     (   0.41156  -0.36598   ) 
                     (  -0.01941   0.04831   ) 
                     (  -0.00000  -0.00000   ) 
                     (  -0.00000  -0.00000   ) 
                     (  -0.00000  -0.00000   ) 
                     (  -0.00000  -0.00000   ) 
                     (  -0.00000  -0.00000   ) 
                     (  -0.00000  -0.00000   ) 

     Representation    12      1 modes -  Not done in this run
     Irreps are as follows:

                     mode #  12
                     (  -0.00000  -0.00000   ) 
                     (  -0.00000  -0.00000   ) 
                     (  -0.00000  -0.00000   ) 
                     (  -0.00000  -0.00000   ) 
                     (  -0.00000  -0.00000   ) 
                     (  -0.00000  -0.00000   ) 
                     (  -0.46481  -0.00000   ) 
                     (  -0.52151  -0.07772   ) 
                     (   0.07341  -0.02332   ) 
                     (   0.21121  -0.08936   ) 
                     (   0.53309  -0.39659   ) 
                     (   0.04124  -0.06504   ) 

     Compute atoms:     1,    2,


     PHONON       :      1h10m CPU      2h10m WALL



     Representation #  11 mode #  11

     Self-consistent Calculation

      iter #   1 total cpu time :  8723.6 secs   av.it.:   5.0
      thresh= 1.000E-02 alpha_mix =  0.700 |ddv_scf|^2 =  3.440E-09

      iter #   2 total cpu time : 10763.1 secs   av.it.:  14.2
      thresh= 5.865E-06 alpha_mix =  0.700 |ddv_scf|^2 =  1.582E-09

      iter #   3 total cpu time : 12739.8 secs   av.it.:  13.4
      thresh= 3.978E-06 alpha_mix =  0.700 |ddv_scf|^2 =  2.122E-10

      iter #   4 total cpu time : 14610.4 secs   av.it.:  13.0
      thresh= 1.457E-06 alpha_mix =  0.700 |ddv_scf|^2 =  1.040E-11

      iter #   5 total cpu time : 16579.0 secs   av.it.:  13.7
      thresh= 3.224E-07 alpha_mix =  0.700 |ddv_scf|^2 =  3.998E-13

     End of self-consistent calculation

     Convergence has been achieved 

     Not diagonalizing because representation    0 is not done

     init_run     :      1.77s CPU      2.00s WALL (       1 calls)
     electrons    :   2507.29s CPU   4369.91s WALL (       1 calls)

     Called by init_run:
     wfcinit      :      0.00s CPU      0.05s WALL (       1 calls)
     wfcinit:atom :      0.81s CPU      1.09s WALL (     342 calls)
     wfcinit:wfcr :     77.87s CPU    117.95s WALL (     342 calls)
     potinit      :      0.15s CPU      0.21s WALL (       1 calls)
     hinit0       :      0.39s CPU      0.41s WALL (       1 calls)

     Called by electrons:
     c_bands      :   2507.23s CPU   4369.80s WALL (       1 calls)
     v_of_rho     :      0.24s CPU      0.30s WALL (       2 calls)
     v_h          :      0.02s CPU      0.02s WALL (       2 calls)
     v_xc         :      0.23s CPU      0.28s WALL (       2 calls)
     newd         :      0.67s CPU      0.93s WALL (       2 calls)

     Called by c_bands:
     init_us_2    :      7.12s CPU     12.35s WALL (    2052 calls)
     init_us_2:cp :      7.12s CPU     12.35s WALL (    2052 calls)
     cegterg      :   2403.21s CPU   4198.44s WALL (     670 calls)

     Called by sum_band:

     Called by *egterg:
     cdiaghg      :    185.71s CPU    410.29s WALL (    9718 calls)
     cegterg:over :    625.79s CPU   1171.51s WALL (    9376 calls)
     cegterg:upda :     60.87s CPU     96.21s WALL (    9376 calls)
     cegterg:last :     36.92s CPU     45.63s WALL (    1690 calls)
     h_psi        :   3182.13s CPU   5183.68s WALL (   24902 calls)
     s_psi        :    162.77s CPU    315.61s WALL (   40271 calls)
     g_psi        :      2.50s CPU      3.43s WALL (    9376 calls)

     Called by h_psi:
     h_psi:calbec :    694.13s CPU   1689.62s WALL (   24902 calls)
     vloc_psi     :   2385.63s CPU   3296.57s WALL (   24902 calls)
     add_vuspsi   :     94.27s CPU    179.79s WALL (   24902 calls)

     General routines
     calbec       :   1478.10s CPU   3218.21s WALL (   45230 calls)
     fft          :      2.47s CPU      3.24s WALL (     131 calls)
     ffts         :      9.37s CPU     14.60s WALL (     195 calls)
     fftw         :   3660.33s CPU   5637.14s WALL (  448913 calls)
     davcio       :      8.14s CPU     54.07s WALL (    5906 calls)

     Parallel routines

     PHONON       :      2h31m CPU      4h37m WALL

     INITIALIZATION: 
     phq_setup    :      0.29s CPU      0.43s WALL (       1 calls)
     phq_init     :   1716.00s CPU   3435.10s WALL (       1 calls)

     phq_init     :   1716.00s CPU   3435.10s WALL (       1 calls)
     set_drhoc    :      0.47s CPU      0.49s WALL (       1 calls)
     init_vloc    :      0.39s CPU      0.42s WALL (       2 calls)
     init_us_1    :      0.09s CPU      0.09s WALL (       2 calls)
     init_us_2    :      7.12s CPU     12.35s WALL (    2052 calls)
     newd         :      0.67s CPU      0.93s WALL (       2 calls)
     dvanqq       :      4.37s CPU      4.44s WALL (       1 calls)
     drho         :   1662.05s CPU   3324.10s WALL (       1 calls)

     DYNAMICAL MATRIX:
     phqscf       :   4838.46s CPU   8845.83s WALL (       1 calls)
     dynmatrix    :      0.17s CPU      0.86s WALL (       1 calls)

     phqscf       :   4838.46s CPU   8845.83s WALL (       1 calls)
     solve_linter :   4794.17s CPU   8760.97s WALL (       1 calls)
     drhodv       :     44.29s CPU     84.76s WALL (       1 calls)



     phqscf       :   4838.46s CPU   8845.83s WALL (       1 calls)
     solve_linter :   4794.17s CPU   8760.97s WALL (       1 calls)

     solve_linter :   4794.17s CPU   8760.97s WALL (       1 calls)
     dvqpsi_us    :     32.23s CPU     48.26s WALL (     171 calls)
     sth_kernel   :   4756.26s CPU   8699.33s WALL (       5 calls)
     apply_dpot_b :     55.76s CPU     64.51s WALL (     684 calls)
     ortho        :     87.83s CPU    163.91s WALL (     855 calls)
     cgsolve      :   4459.51s CPU   8199.29s WALL (     855 calls)
     incdrhoscf   :    112.38s CPU    163.87s WALL (     855 calls)
     addusddens   :      6.27s CPU     11.46s WALL (      17 calls)
     dv_of_drho   :      0.52s CPU      0.63s WALL (       5 calls)
     mix_pot      :      0.22s CPU      1.47s WALL (       5 calls)
     psymdvscf    :      0.96s CPU      1.39s WALL (       5 calls)
     newdq        :      0.88s CPU      0.91s WALL (       5 calls)
     adddvscf     :     11.35s CPU     28.29s WALL (     684 calls)
     drhodvus     :      0.04s CPU      0.94s WALL (       1 calls)

     dvqpsi_us    :     32.23s CPU     48.26s WALL (     171 calls)
     dvqpsi_us_on :      4.82s CPU     11.65s WALL (     171 calls)

     cgsolve      :   4459.51s CPU   8199.29s WALL (     855 calls)
     ch_psi       :   3119.84s CPU   5520.52s WALL (   14514 calls)

     ch_psi       :   3119.84s CPU   5520.52s WALL (   14514 calls)
     h_psi        :   3182.13s CPU   5183.68s WALL (   24902 calls)
     last         :   1012.09s CPU   1997.51s WALL (   14514 calls)

     h_psi        :   3182.13s CPU   5183.68s WALL (   24902 calls)
     add_vuspsi   :     94.27s CPU    179.79s WALL (   24902 calls)

     incdrhoscf   :    112.38s CPU    163.87s WALL (     855 calls)
     addusdbec    :    124.46s CPU    276.72s WALL (    2907 calls)

     drhodvus     :      0.04s CPU      0.94s WALL (       1 calls)

      General routines
     calbec       :   1478.10s CPU   3218.21s WALL (   45230 calls)
     fft          :      2.47s CPU      3.24s WALL (     131 calls)
     ffts         :      9.37s CPU     14.60s WALL (     195 calls)
     fftw         :   3660.33s CPU   5637.14s WALL (  448913 calls)
     davcio       :      8.14s CPU     54.07s WALL (    5906 calls)
     write_rec    :      0.01s CPU      0.65s WALL (       6 calls)


     PHONON       :      2h31m CPU      4h37m WALL


   This run was terminated on:   3:13:32   1Mar2024            

=------------------------------------------------------------------------------=
   JOB DONE.
=------------------------------------------------------------------------------=
