
     Program Q2R v.7.1 starts on  4Mar2024 at 16:29:30 

     This program is part of the open-source Quantum ESPRESSO suite
     for quantum simulation of materials; please cite
         "P. Giannozzi et al., J. Phys.:Condens. Matter 21 395502 (2009);
         "P. Giannozzi et al., J. Phys.:Condens. Matter 29 465901 (2017);
         "P. Giannozzi et al., J. Chem. Phys. 152 154105 (2020);
          URL http://www.quantum-espresso.org", 
     in publications or presentations arising from this work. More details at
     http://www.quantum-espresso.org/quote

     Parallel version (MPI), running on     2 processors

     MPI processes distributed on     1 nodes
     R & G space division:  proc/nbgrp/npool/nimage =       2
     11289 MiB available memory on the printing compute node when the environment starts


     reading grid info from file fgc.dyn0    
  reading force constants from file fgc.dyn1
  Dielectric Tensor not found
  nqs=            1
 q=   0.00000000  0.00000000  0.00000000
  reading force constants from file fgc.dyn2
  nqs=            6
 q=   0.00000000  0.12830006  0.00000000
 q=  -0.11111111 -0.06415003  0.00000000
 q=   0.11111111 -0.06415003  0.00000000
 q=  -0.11111111  0.06415003  0.00000000
 q=   0.11111111  0.06415003  0.00000000
 q=   0.00000000 -0.12830006  0.00000000
  reading force constants from file fgc.dyn3
  nqs=            6
 q=   0.00000000  0.25660012  0.00000000
 q=  -0.22222222 -0.12830006  0.00000000
 q=   0.22222222 -0.12830006  0.00000000
 q=  -0.22222222  0.12830006  0.00000000
 q=   0.22222222  0.12830006  0.00000000
 q=   0.00000000 -0.25660012  0.00000000
  reading force constants from file fgc.dyn4
  nqs=            6
 q=   0.00000000  0.38490018  0.00000000
 q=  -0.33333333 -0.19245009  0.00000000
 q=   0.33333333 -0.19245009  0.00000000
 q=  -0.33333333  0.19245009  0.00000000
 q=   0.33333333  0.19245009  0.00000000
 q=   0.00000000 -0.38490018  0.00000000
  reading force constants from file fgc.dyn5
  nqs=            6
 q=   0.00000000  0.51320024  0.00000000
 q=  -0.44444444 -0.25660012  0.00000000
 q=   0.44444444 -0.25660012  0.00000000
 q=  -0.44444444  0.25660012  0.00000000
 q=   0.44444444  0.25660012  0.00000000
 q=   0.00000000 -0.51320024  0.00000000
  reading force constants from file fgc.dyn6
  nqs=            6
 q=   0.11111111  0.19245009  0.00000000
 q=  -0.22222222  0.00000000  0.00000000
 q=   0.11111111 -0.19245009  0.00000000
 q=  -0.11111111  0.19245009  0.00000000
 q=  -0.11111111 -0.19245009  0.00000000
 q=   0.22222222  0.00000000  0.00000000
  reading force constants from file fgc.dyn7
  nqs=           12
 q=   0.11111111  0.32075015  0.00000000
 q=   0.22222222  0.25660012  0.00000000
 q=  -0.33333333 -0.06415003  0.00000000
 q=   0.22222222 -0.25660012  0.00000000
 q=  -0.33333333  0.06415003  0.00000000
 q=  -0.11111111  0.32075015  0.00000000
 q=  -0.11111111 -0.32075015  0.00000000
 q=   0.11111111 -0.32075015  0.00000000
 q=   0.33333333  0.06415003  0.00000000
 q=  -0.22222222  0.25660012  0.00000000
 q=   0.33333333 -0.06415003  0.00000000
 q=  -0.22222222 -0.25660012  0.00000000
  reading force constants from file fgc.dyn8
  nqs=           12
 q=   0.11111111  0.44905021  0.00000000
 q=   0.33333333  0.32075015  0.00000000
 q=  -0.44444444 -0.12830006  0.00000000
 q=   0.33333333 -0.32075015  0.00000000
 q=  -0.44444444  0.12830006  0.00000000
 q=  -0.11111111  0.44905021  0.00000000
 q=  -0.11111111 -0.44905021  0.00000000
 q=   0.11111111 -0.44905021  0.00000000
 q=   0.44444444  0.12830006  0.00000000
 q=  -0.33333333  0.32075015  0.00000000
 q=   0.44444444 -0.12830006  0.00000000
 q=  -0.33333333 -0.32075015  0.00000000
  reading force constants from file fgc.dyn9
  nqs=            6
 q=   0.11111111  0.57735027  0.00000000
 q=  -0.55555556 -0.19245009  0.00000000
 q=   0.44444444 -0.38490018  0.00000000
 q=  -0.11111111  0.57735027  0.00000000
 q=   0.55555556  0.19245009  0.00000000
 q=  -0.44444444  0.38490018  0.00000000
  reading force constants from file fgc.dyn10
  nqs=            6
 q=   0.22222222  0.38490018  0.00000000
 q=  -0.44444444  0.00000000  0.00000000
 q=   0.22222222 -0.38490018  0.00000000
 q=  -0.22222222  0.38490018  0.00000000
 q=  -0.22222222 -0.38490018  0.00000000
 q=   0.44444444  0.00000000  0.00000000
  reading force constants from file fgc.dyn11
  nqs=           12
 q=   0.22222222  0.51320024  0.00000000
 q=   0.33333333  0.44905021  0.00000000
 q=  -0.55555556 -0.06415003  0.00000000
 q=   0.33333333 -0.44905021  0.00000000
 q=  -0.55555556  0.06415003  0.00000000
 q=  -0.22222222  0.51320024  0.00000000
 q=  -0.22222222 -0.51320024  0.00000000
 q=   0.22222222 -0.51320024  0.00000000
 q=   0.55555556  0.06415003  0.00000000
 q=  -0.33333333  0.44905021  0.00000000
 q=   0.55555556 -0.06415003  0.00000000
 q=  -0.33333333 -0.44905021  0.00000000
  reading force constants from file fgc.dyn12
  nqs=            2
 q=   0.33333333  0.57735027  0.00000000
 q=  -0.33333333 -0.57735027  0.00000000

      q-space grid ok, #points =   81

      fft-check success (sum of imaginary terms < 10^-12)

     Q2R          :      0.36s CPU      3.21s WALL


   This run was terminated on:  16:29:33   4Mar2024            

=------------------------------------------------------------------------------=
   JOB DONE.
=------------------------------------------------------------------------------=
