
     Program PWSCF v.7.1 starts on 29Feb2024 at 17:58: 9 

     This program is part of the open-source Quantum ESPRESSO suite
     for quantum simulation of materials; please cite
         "P. Giannozzi et al., J. Phys.:Condens. Matter 21 395502 (2009);
         "P. Giannozzi et al., J. Phys.:Condens. Matter 29 465901 (2017);
         "P. Giannozzi et al., J. Chem. Phys. 152 154105 (2020);
          URL http://www.quantum-espresso.org", 
     in publications or presentations arising from this work. More details at
     http://www.quantum-espresso.org/quote

     Parallel version (MPI), running on    24 processors

     MPI processes distributed on     1 nodes
     198529 MiB available memory on the printing compute node when the environment starts

     Reading input from scf.in

     Current dimensions of program PWSCF are:
     Max number of different atomic species (ntypx) = 10
     Max number of k-points (npk) =  40000
     Max angular momentum in pseudopotentials (lmaxx) =  4

     K-points division:     npool     =       6
     R & G space division:  proc/nbgrp/npool/nimage =       4
     Subspace diagonalization in iterative solution of the eigenvalue problem:
     a serial algorithm will be used


     Parallelization info
     --------------------
     sticks:   dense  smooth     PW     G-vecs:    dense   smooth      PW
     Min         832     832    228               277002   277002   38740
     Max         833     833    229               277019   277019   38753
     Sum        3331    3331    913              1108055  1108055  154987

     Using Slab Decomposition



     bravais-lattice index     =            4
     lattice parameter (alat)  =       4.9233  a.u.
     unit-cell volume          =     733.8532 (a.u.)^3
     number of atoms/cell      =            4
     number of atomic types    =            2
     number of electrons       =        22.00
     number of Kohn-Sham states=           15
     kinetic-energy cutoff     =     500.0000  Ry
     charge density cutoff     =    2000.0000  Ry
     scf convergence threshold =      1.0E-12
     mixing beta               =       0.7000
     number of iterations used =            8  plain     mixing
     Exchange-correlation=  SLA  PW   PBX  PBC
                           (   1   4   3   4   0   0   0)

     celldm(1)=   4.923251  celldm(2)=   0.000000  celldm(3)=   7.101051
     celldm(4)=   0.000000  celldm(5)=   0.000000  celldm(6)=   0.000000

     crystal axes: (cart. coord. in units of alat)
               a(1) = (   1.000000   0.000000   0.000000 )  
               a(2) = (  -0.500000   0.866025   0.000000 )  
               a(3) = (   0.000000   0.000000   7.101051 )  

     reciprocal axes: (cart. coord. in units 2 pi/alat)
               b(1) = (  1.000000  0.577350 -0.000000 )  
               b(2) = (  0.000000  1.154701  0.000000 )  
               b(3) = (  0.000000 -0.000000  0.140824 )  


     PseudoPot. # 1 for C  read from file:
     ../pseudo/c_pbe_v1.2.uspp.F.UPF
     MD5 check sum: d1aef80898a10debaa0f26306b886e00
     Pseudo is Ultrasoft + core correction, Zval =  4.0
     Generated by new atomic code, or converted to UPF format
     Using radial grid of  721 points,  4 beta functions with: 
                l(1) =   0
                l(2) =   0
                l(3) =   1
                l(4) =   1
     Q(r) pseudized with  8 coefficients,  rinner =    1.100   1.100   1.100


     PseudoPot. # 2 for F  read from file:
     ../pseudo/f_pbe_v1.4.uspp.F.UPF
     MD5 check sum: 4c38b6a325caf53ec0e86aed9459de46
     Pseudo is Ultrasoft, Zval =  7.0
     Generated by new atomic code, or converted to UPF format
     Using radial grid of  799 points,  4 beta functions with: 
                l(1) =   0
                l(2) =   0
                l(3) =   1
                l(4) =   1
     Q(r) pseudized with  8 coefficients,  rinner =    0.950   0.950   0.950


     atomic species   valence    mass     pseudopotential
        C              4.00    12.01070     C ( 1.00)
        F              7.00    18.99840     F ( 1.00)

     12 Sym. Ops., with inversion, found ( 8 have fractional translation)


                                    s                        frac. trans.

      isym =  1     identity                                     

 cryst.   s( 1) = (     1          0          0      )
                  (     0          1          0      )
                  (     0          0          1      )

 cart.    s( 1) = (  1.0000000  0.0000000  0.0000000 )
                  (  0.0000000  1.0000000  0.0000000 )
                  (  0.0000000  0.0000000  1.0000000 )


      isym =  2     180 deg rotation - cart. axis [1,0,0]        

 cryst.   s( 2) = (     1          0          0      )
                  (    -1         -1          0      )
                  (     0          0         -1      )

 cart.    s( 2) = (  1.0000000  0.0000000  0.0000000 )
                  (  0.0000000 -1.0000000  0.0000000 )
                  (  0.0000000  0.0000000 -1.0000000 )


      isym =  3     120 deg rotation - cryst. axis [0,0,1]       

 cryst.   s( 3) = (     0          1          0      )    f =( -0.5000000 )
                  (    -1         -1          0      )       ( -0.5000000 )
                  (     0          0          1      )       (  0.0000000 )

 cart.    s( 3) = ( -0.5000000 -0.8660254  0.0000000 )    f =( -0.2500000 )
                  (  0.8660254 -0.5000000  0.0000000 )       ( -0.4330127 )
                  (  0.0000000  0.0000000  1.0000000 )       (  0.0000000 )


      isym =  4     120 deg rotation - cryst. axis [0,0,-1]      

 cryst.   s( 4) = (    -1         -1          0      )    f =(  0.0000000 )
                  (     1          0          0      )       ( -0.5000000 )
                  (     0          0          1      )       (  0.0000000 )

 cart.    s( 4) = ( -0.5000000  0.8660254  0.0000000 )    f =(  0.2500000 )
                  ( -0.8660254 -0.5000000  0.0000000 )       ( -0.4330127 )
                  (  0.0000000  0.0000000  1.0000000 )       (  0.0000000 )


      isym =  5     180 deg rotation - cryst. axis [0,1,0]       

 cryst.   s( 5) = (    -1         -1          0      )    f =(  0.0000000 )
                  (     0          1          0      )       ( -0.5000000 )
                  (     0          0         -1      )       (  0.0000000 )

 cart.    s( 5) = ( -0.5000000 -0.8660254  0.0000000 )    f =(  0.2500000 )
                  ( -0.8660254  0.5000000  0.0000000 )       ( -0.4330127 )
                  (  0.0000000  0.0000000 -1.0000000 )       (  0.0000000 )


      isym =  6     180 deg rotation - cryst. axis [1,1,0]       

 cryst.   s( 6) = (     0          1          0      )    f =(  0.5000000 )
                  (     1          0          0      )       (  0.5000000 )
                  (     0          0         -1      )       (  0.0000000 )

 cart.    s( 6) = ( -0.5000000  0.8660254  0.0000000 )    f =(  0.2500000 )
                  (  0.8660254  0.5000000  0.0000000 )       (  0.4330127 )
                  (  0.0000000  0.0000000 -1.0000000 )       (  0.0000000 )


      isym =  7     inversion                                    

 cryst.   s( 7) = (    -1          0          0      )
                  (     0         -1          0      )
                  (     0          0         -1      )

 cart.    s( 7) = ( -1.0000000  0.0000000  0.0000000 )
                  (  0.0000000 -1.0000000  0.0000000 )
                  (  0.0000000  0.0000000 -1.0000000 )


      isym =  8     inv. 180 deg rotation - cart. axis [1,0,0]   

 cryst.   s( 8) = (    -1          0          0      )
                  (     1          1          0      )
                  (     0          0          1      )

 cart.    s( 8) = ( -1.0000000  0.0000000  0.0000000 )
                  (  0.0000000  1.0000000  0.0000000 )
                  (  0.0000000  0.0000000  1.0000000 )


      isym =  9     inv. 120 deg rotation - cryst. axis [0,0,1]  

 cryst.   s( 9) = (     0         -1          0      )    f =(  0.5000000 )
                  (     1          1          0      )       ( -0.5000000 )
                  (     0          0         -1      )       (  0.0000000 )

 cart.    s( 9) = (  0.5000000  0.8660254  0.0000000 )    f =(  0.7500000 )
                  ( -0.8660254  0.5000000  0.0000000 )       ( -0.4330127 )
                  (  0.0000000  0.0000000 -1.0000000 )       (  0.0000000 )


      isym = 10     inv. 120 deg rotation - cryst. axis [0,0,-1] 

 cryst.   s(10) = (     1          1          0      )    f =(  0.0000000 )
                  (    -1          0          0      )       (  0.5000000 )
                  (     0          0         -1      )       (  0.0000000 )

 cart.    s(10) = (  0.5000000 -0.8660254  0.0000000 )    f =( -0.2500000 )
                  (  0.8660254  0.5000000  0.0000000 )       (  0.4330127 )
                  (  0.0000000  0.0000000 -1.0000000 )       (  0.0000000 )


      isym = 11     inv. 180 deg rotation - cryst. axis [0,1,0]  

 cryst.   s(11) = (     1          1          0      )    f =(  0.0000000 )
                  (     0         -1          0      )       ( -0.5000000 )
                  (     0          0          1      )       (  0.0000000 )

 cart.    s(11) = (  0.5000000  0.8660254  0.0000000 )    f =(  0.2500000 )
                  (  0.8660254 -0.5000000  0.0000000 )       ( -0.4330127 )
                  (  0.0000000  0.0000000  1.0000000 )       (  0.0000000 )


      isym = 12     inv. 180 deg rotation - cryst. axis [1,1,0]  

 cryst.   s(12) = (     0         -1          0      )    f =( -0.5000000 )
                  (    -1          0          0      )       ( -0.5000000 )
                  (     0          0          1      )       (  0.0000000 )

 cart.    s(12) = (  0.5000000 -0.8660254  0.0000000 )    f =( -0.2500000 )
                  ( -0.8660254 -0.5000000  0.0000000 )       ( -0.4330127 )
                  (  0.0000000  0.0000000  1.0000000 )       (  0.0000000 )


     point group D_3d (-3m) 
     there are  6 classes
     the character table:

       E     2C3   3C2'  i     2S6   3s_d 
A_1g   1.00  1.00  1.00  1.00  1.00  1.00
A_2g   1.00  1.00 -1.00  1.00  1.00 -1.00
E_g    2.00 -1.00  0.00  2.00 -1.00  0.00
A_1u   1.00  1.00  1.00 -1.00 -1.00 -1.00
A_2u   1.00  1.00 -1.00 -1.00 -1.00  1.00
E_u    2.00 -1.00  0.00 -2.00  1.00  0.00

     the symmetry operations in each class and the name of the first element:

     E        1
          identity                                               
     2C3      3    4
          120 deg rotation - cryst. axis [0,0,1]                 
     3C2'     2    5    6
          180 deg rotation - cart. axis [1,0,0]                  
     i        7
          inversion                                              
     2S6      9   10
          inv. 120 deg rotation - cryst. axis [0,0,1]            
     3s_d     8   11   12
          inv. 180 deg rotation - cart. axis [1,0,0]             

   Cartesian axes

     site n.     atom                  positions (alat units)
         1           C   tau(   1) = (   0.5000000   0.5773503  -0.0938425  )
         2           C   tau(   2) = (  -0.0000000   0.2886751   0.0938425  )
         3           F   tau(   3) = (   0.5000000   0.5773503  -0.6234719  )
         4           F   tau(   4) = (  -0.0000000   0.2886751   0.6234719  )

   Crystallographic axes

     site n.     atom                  positions (cryst. coord.)
         1           C   tau(   1) = (  0.8333333  0.6666667 -0.0132153  )
         2           C   tau(   2) = (  0.1666667  0.3333333  0.0132153  )
         3           F   tau(   3) = (  0.8333333  0.6666667 -0.0877999  )
         4           F   tau(   4) = (  0.1666667  0.3333333  0.0877999  )

     number of k points=    37  Marzari-Vanderbilt smearing, width (Ry)=  0.0010
                       cart. coord. in units 2pi/alat
        k(    1) = (   0.0000000   0.0000000   0.0000000), wk =   0.0061728
        k(    2) = (   0.0000000   0.0641500   0.0000000), wk =   0.0370370
        k(    3) = (   0.0000000   0.1283001   0.0000000), wk =   0.0370370
        k(    4) = (   0.0000000   0.1924501   0.0000000), wk =   0.0370370
        k(    5) = (   0.0000000   0.2566001   0.0000000), wk =   0.0370370
        k(    6) = (   0.0000000   0.3207501   0.0000000), wk =   0.0370370
        k(    7) = (   0.0000000   0.3849002   0.0000000), wk =   0.0370370
        k(    8) = (   0.0000000   0.4490502   0.0000000), wk =   0.0370370
        k(    9) = (   0.0000000   0.5132002   0.0000000), wk =   0.0370370
        k(   10) = (   0.0000000  -0.5773503   0.0000000), wk =   0.0185185
        k(   11) = (   0.0555556   0.0962250   0.0000000), wk =   0.0370370
        k(   12) = (   0.0555556   0.1603751   0.0000000), wk =   0.0740741
        k(   13) = (   0.0555556   0.2245251   0.0000000), wk =   0.0740741
        k(   14) = (   0.0555556   0.2886751   0.0000000), wk =   0.0740741
        k(   15) = (   0.0555556   0.3528252   0.0000000), wk =   0.0740741
        k(   16) = (   0.0555556   0.4169752   0.0000000), wk =   0.0740741
        k(   17) = (   0.0555556   0.4811252   0.0000000), wk =   0.0740741
        k(   18) = (   0.0555556   0.5452753   0.0000000), wk =   0.0740741
        k(   19) = (   0.1111111   0.1924501   0.0000000), wk =   0.0370370
        k(   20) = (   0.1111111   0.2566001   0.0000000), wk =   0.0740741
        k(   21) = (   0.1111111   0.3207501   0.0000000), wk =   0.0740741
        k(   22) = (   0.1111111   0.3849002   0.0000000), wk =   0.0740741
        k(   23) = (   0.1111111   0.4490502   0.0000000), wk =   0.0740741
        k(   24) = (   0.1111111   0.5132002   0.0000000), wk =   0.0740741
        k(   25) = (   0.1111111   0.5773503   0.0000000), wk =   0.0370370
        k(   26) = (   0.1666667   0.2886751   0.0000000), wk =   0.0370370
        k(   27) = (   0.1666667   0.3528252   0.0000000), wk =   0.0740741
        k(   28) = (   0.1666667   0.4169752   0.0000000), wk =   0.0740741
        k(   29) = (   0.1666667   0.4811252   0.0000000), wk =   0.0740741
        k(   30) = (   0.1666667   0.5452753   0.0000000), wk =   0.0740741
        k(   31) = (   0.2222222   0.3849002   0.0000000), wk =   0.0370370
        k(   32) = (   0.2222222   0.4490502   0.0000000), wk =   0.0740741
        k(   33) = (   0.2222222   0.5132002   0.0000000), wk =   0.0740741
        k(   34) = (   0.2222222   0.5773503   0.0000000), wk =   0.0370370
        k(   35) = (   0.2777778   0.4811252   0.0000000), wk =   0.0370370
        k(   36) = (   0.2777778   0.5452753   0.0000000), wk =   0.0740741
        k(   37) = (   0.3333333   0.5773503   0.0000000), wk =   0.0123457

                       cryst. coord.
        k(    1) = (   0.0000000   0.0000000   0.0000000), wk =   0.0061728
        k(    2) = (   0.0000000   0.0555556   0.0000000), wk =   0.0370370
        k(    3) = (   0.0000000   0.1111111   0.0000000), wk =   0.0370370
        k(    4) = (   0.0000000   0.1666667   0.0000000), wk =   0.0370370
        k(    5) = (   0.0000000   0.2222222   0.0000000), wk =   0.0370370
        k(    6) = (   0.0000000   0.2777778   0.0000000), wk =   0.0370370
        k(    7) = (   0.0000000   0.3333333   0.0000000), wk =   0.0370370
        k(    8) = (   0.0000000   0.3888889   0.0000000), wk =   0.0370370
        k(    9) = (   0.0000000   0.4444444   0.0000000), wk =   0.0370370
        k(   10) = (   0.0000000  -0.5000000   0.0000000), wk =   0.0185185
        k(   11) = (   0.0555556   0.0555556   0.0000000), wk =   0.0370370
        k(   12) = (   0.0555556   0.1111111   0.0000000), wk =   0.0740741
        k(   13) = (   0.0555556   0.1666667   0.0000000), wk =   0.0740741
        k(   14) = (   0.0555556   0.2222222   0.0000000), wk =   0.0740741
        k(   15) = (   0.0555556   0.2777778   0.0000000), wk =   0.0740741
        k(   16) = (   0.0555556   0.3333333   0.0000000), wk =   0.0740741
        k(   17) = (   0.0555556   0.3888889   0.0000000), wk =   0.0740741
        k(   18) = (   0.0555556   0.4444444   0.0000000), wk =   0.0740741
        k(   19) = (   0.1111111   0.1111111   0.0000000), wk =   0.0370370
        k(   20) = (   0.1111111   0.1666667   0.0000000), wk =   0.0740741
        k(   21) = (   0.1111111   0.2222222   0.0000000), wk =   0.0740741
        k(   22) = (   0.1111111   0.2777778   0.0000000), wk =   0.0740741
        k(   23) = (   0.1111111   0.3333333   0.0000000), wk =   0.0740741
        k(   24) = (   0.1111111   0.3888889   0.0000000), wk =   0.0740741
        k(   25) = (   0.1111111   0.4444444   0.0000000), wk =   0.0370370
        k(   26) = (   0.1666667   0.1666667   0.0000000), wk =   0.0370370
        k(   27) = (   0.1666667   0.2222222   0.0000000), wk =   0.0740741
        k(   28) = (   0.1666667   0.2777778   0.0000000), wk =   0.0740741
        k(   29) = (   0.1666667   0.3333333   0.0000000), wk =   0.0740741
        k(   30) = (   0.1666667   0.3888889   0.0000000), wk =   0.0740741
        k(   31) = (   0.2222222   0.2222222   0.0000000), wk =   0.0370370
        k(   32) = (   0.2222222   0.2777778   0.0000000), wk =   0.0740741
        k(   33) = (   0.2222222   0.3333333   0.0000000), wk =   0.0740741
        k(   34) = (   0.2222222   0.3888889   0.0000000), wk =   0.0370370
        k(   35) = (   0.2777778   0.2777778   0.0000000), wk =   0.0370370
        k(   36) = (   0.2777778   0.3333333   0.0000000), wk =   0.0740741
        k(   37) = (   0.3333333   0.3333333   0.0000000), wk =   0.0123457

     Dense  grid:  1108055 G-vectors     FFT dimensions: (  72,  72, 500)

     Dynamical RAM for                 wfc:       7.93 MB

     Dynamical RAM for     wfc (w. buffer):      63.42 MB

     Dynamical RAM for           str. fact:       8.45 MB

     Dynamical RAM for           local pot:       0.00 MB

     Dynamical RAM for          nlocal pot:      16.91 MB

     Dynamical RAM for                qrad:       2.05 MB

     Dynamical RAM for          rho,v,vnew:      27.51 MB

     Dynamical RAM for               rhoin:       9.17 MB

     Dynamical RAM for            rho*nmix:      67.63 MB

     Dynamical RAM for           G-vectors:      17.96 MB

     Dynamical RAM for          h,s,v(r/c):       0.04 MB

     Dynamical RAM for          <psi|beta>:       0.01 MB

     Dynamical RAM for                 psi:      15.86 MB

     Dynamical RAM for                hpsi:      15.86 MB

     Dynamical RAM for                spsi:      15.86 MB

     Dynamical RAM for      wfcinit/wfcrot:      16.92 MB

     Dynamical RAM for           addusdens:      35.22 MB

     Estimated static dynamical RAM per process >     182.89 MB

     Estimated max dynamical RAM per process >     298.14 MB

     Estimated total dynamical RAM >       5.67 GB
 ----2D----2D----2D----2D----2D----2D----2D----2D----2D----2D----2D----2D
  The code is running with the 2D cutoff
  Please refer to:
  Sohier, T., Calandra, M., & Mauri, F. (2017), 
  Density functional perturbation theory for gated two-dimensional heterostructures:
  Theoretical developments and application to flexural phonons in graphene.
  Physical Review B, 96(7), 75448. https://doi.org/10.1103/PhysRevB.96.075448
 ----2D----2D----2D----2D----2D----2D----2D----2D----2D----2D----2D----2D

     Initial potential from superposition of free atoms

     starting charge      21.9999, renormalised to      22.0000

     negative rho (up, down):  1.607E-03 0.000E+00
     Starting wfcs are   16 randomized atomic wfcs

     total cpu time spent up to now is       17.5 secs

     Self-consistent Calculation

     iteration #  1     ecut=   500.00 Ry     beta= 0.70
     Davidson diagonalization with overlap

---- Real-time Memory Report at c_bands before calling an iterative solver
           225 MiB given to the printing process from OS
             0 MiB allocation reported by mallinfo(arena+hblkhd)
        193877 MiB available memory on the node where the printing process lives
------------------
     ethr =  1.00E-02,  avg # of iterations =  4.1

     Threshold (ethr) on eigenvalues was too large:
     Diagonalizing with lowered threshold

     Davidson diagonalization with overlap

---- Real-time Memory Report at c_bands before calling an iterative solver
           279 MiB given to the printing process from OS
             0 MiB allocation reported by mallinfo(arena+hblkhd)
        192941 MiB available memory on the node where the printing process lives
------------------
     ethr =  9.49E-04,  avg # of iterations =  1.8

     negative rho (up, down):  4.565E-04 0.000E+00

     total cpu time spent up to now is      133.4 secs

     total energy              =    -120.08819820 Ry
     estimated scf accuracy    <       0.20589644 Ry

     iteration #  2     ecut=   500.00 Ry     beta= 0.70
     Davidson diagonalization with overlap

---- Real-time Memory Report at c_bands before calling an iterative solver
           339 MiB given to the printing process from OS
             0 MiB allocation reported by mallinfo(arena+hblkhd)
        192750 MiB available memory on the node where the printing process lives
------------------
     ethr =  9.36E-04,  avg # of iterations =  2.0

     negative rho (up, down):  2.516E-04 0.000E+00

     total cpu time spent up to now is      181.7 secs

     total energy              =    -120.10181571 Ry
     estimated scf accuracy    <       0.10860709 Ry

     iteration #  3     ecut=   500.00 Ry     beta= 0.70
     Davidson diagonalization with overlap

---- Real-time Memory Report at c_bands before calling an iterative solver
           349 MiB given to the printing process from OS
             0 MiB allocation reported by mallinfo(arena+hblkhd)
        192736 MiB available memory on the node where the printing process lives
------------------
     ethr =  4.94E-04,  avg # of iterations =  3.1

     negative rho (up, down):  5.303E-05 0.000E+00

     total cpu time spent up to now is      243.3 secs

     total energy              =    -120.13191562 Ry
     estimated scf accuracy    <       0.01431695 Ry

     iteration #  4     ecut=   500.00 Ry     beta= 0.70
     Davidson diagonalization with overlap

---- Real-time Memory Report at c_bands before calling an iterative solver
           357 MiB given to the printing process from OS
             0 MiB allocation reported by mallinfo(arena+hblkhd)
        192702 MiB available memory on the node where the printing process lives
------------------
     ethr =  6.51E-05,  avg # of iterations =  4.8

     negative rho (up, down):  8.741E-06 0.000E+00

     total cpu time spent up to now is      317.8 secs

     total energy              =    -120.13426312 Ry
     estimated scf accuracy    <       0.00013061 Ry

     iteration #  5     ecut=   500.00 Ry     beta= 0.70
     Davidson diagonalization with overlap

---- Real-time Memory Report at c_bands before calling an iterative solver
           366 MiB given to the printing process from OS
             0 MiB allocation reported by mallinfo(arena+hblkhd)
        192668 MiB available memory on the node where the printing process lives
------------------
     ethr =  5.94E-07,  avg # of iterations =  6.5

     negative rho (up, down):  5.326E-06 0.000E+00

     total cpu time spent up to now is      415.4 secs

     total energy              =    -120.13431168 Ry
     estimated scf accuracy    <       0.00000840 Ry

     iteration #  6     ecut=   500.00 Ry     beta= 0.70
     Davidson diagonalization with overlap

---- Real-time Memory Report at c_bands before calling an iterative solver
           374 MiB given to the printing process from OS
             0 MiB allocation reported by mallinfo(arena+hblkhd)
        192633 MiB available memory on the node where the printing process lives
------------------
     ethr =  3.82E-08,  avg # of iterations =  2.0

     negative rho (up, down):  5.440E-06 0.000E+00

     total cpu time spent up to now is      460.5 secs

     total energy              =    -120.13431294 Ry
     estimated scf accuracy    <       0.00000020 Ry

     iteration #  7     ecut=   500.00 Ry     beta= 0.70
     Davidson diagonalization with overlap

---- Real-time Memory Report at c_bands before calling an iterative solver
           383 MiB given to the printing process from OS
             0 MiB allocation reported by mallinfo(arena+hblkhd)
        192599 MiB available memory on the node where the printing process lives
------------------
     ethr =  9.29E-10,  avg # of iterations =  3.1

     negative rho (up, down):  5.451E-06 0.000E+00

     total cpu time spent up to now is      520.5 secs

     total energy              =    -120.13431303 Ry
     estimated scf accuracy    <       0.00000005 Ry

     iteration #  8     ecut=   500.00 Ry     beta= 0.70
     Davidson diagonalization with overlap

---- Real-time Memory Report at c_bands before calling an iterative solver
           391 MiB given to the printing process from OS
             0 MiB allocation reported by mallinfo(arena+hblkhd)
        192567 MiB available memory on the node where the printing process lives
------------------
     ethr =  2.41E-10,  avg # of iterations =  2.0

     negative rho (up, down):  5.457E-06 0.000E+00

     total cpu time spent up to now is      566.7 secs

     total energy              =    -120.13431304 Ry
     estimated scf accuracy    <          8.8E-11 Ry

     iteration #  9     ecut=   500.00 Ry     beta= 0.70
     Davidson diagonalization with overlap

---- Real-time Memory Report at c_bands before calling an iterative solver
           399 MiB given to the printing process from OS
             0 MiB allocation reported by mallinfo(arena+hblkhd)
        192537 MiB available memory on the node where the printing process lives
------------------
     ethr =  4.00E-13,  avg # of iterations =  5.1

     negative rho (up, down):  5.457E-06 0.000E+00

     total cpu time spent up to now is      649.9 secs

     total energy              =    -120.13431304 Ry
     estimated scf accuracy    <          5.1E-11 Ry

     iteration # 10     ecut=   500.00 Ry     beta= 0.70
     Davidson diagonalization with overlap

---- Real-time Memory Report at c_bands before calling an iterative solver
           408 MiB given to the printing process from OS
             0 MiB allocation reported by mallinfo(arena+hblkhd)
        192498 MiB available memory on the node where the printing process lives
------------------
     ethr =  2.32E-13,  avg # of iterations =  2.0

     negative rho (up, down):  5.457E-06 0.000E+00

     total cpu time spent up to now is      695.6 secs

     total energy              =    -120.13431304 Ry
     estimated scf accuracy    <          1.8E-12 Ry

     iteration # 11     ecut=   500.00 Ry     beta= 0.70
     Davidson diagonalization with overlap

---- Real-time Memory Report at c_bands before calling an iterative solver
           408 MiB given to the printing process from OS
             0 MiB allocation reported by mallinfo(arena+hblkhd)
        192494 MiB available memory on the node where the printing process lives
------------------
     ethr =  1.00E-13,  avg # of iterations =  1.0

     negative rho (up, down):  5.457E-06 0.000E+00

     total cpu time spent up to now is      731.4 secs

     End of self-consistent calculation

          k = 0.0000 0.0000 0.0000 (138795 PWs)   bands (ev):

   -33.3331 -32.8377 -24.1204 -16.7591 -13.7783 -12.0347 -12.0347 -10.8581
   -10.8581  -7.8871  -7.8871  -4.7441  -0.5270  -0.5270  -0.2138

     occupation numbers 
     1.0000   1.0000   1.0000   1.0000   1.0000   1.0000   1.0000   1.0000
     1.0000   1.0000   1.0000   0.0000   0.0000   0.0000   0.0000

          k = 0.0000 0.0642 0.0000 (138757 PWs)   bands (ev):

   -33.3060 -32.8183 -24.0729 -16.7335 -13.8006 -12.2483 -12.1035 -10.9125
   -10.8691  -8.1007  -7.9620  -4.5687  -0.5025  -0.3188  -0.1163

     occupation numbers 
     1.0000   1.0000   1.0000   1.0000   1.0000   1.0000   1.0000   1.0000
     1.0000   1.0000   1.0000   0.0000   0.0000   0.0000   0.0000

          k = 0.0000 0.1283 0.0000 (138715 PWs)   bands (ev):

   -33.2272 -32.7621 -23.9307 -16.6606 -13.8746 -12.8275 -12.2960 -11.0694
   -10.9033  -8.6250  -8.1545  -4.1612  -0.4463   0.1498   0.2555

     occupation numbers 
     1.0000   1.0000   1.0000   1.0000   1.0000   1.0000   1.0000   1.0000
     1.0000   1.0000   1.0000   0.0000   0.0000   0.0000   0.0000

          k = 0.0000 0.1925 0.0000 (138677 PWs)   bands (ev):

   -33.1036 -32.6752 -23.6942 -16.5538 -14.0686 -13.5866 -12.5774 -11.3007
   -10.9604  -9.2832  -8.3995  -3.7015  -0.3609   0.5653   0.8647

     occupation numbers 
     1.0000   1.0000   1.0000   1.0000   1.0000   1.0000   1.0000   1.0000
     1.0000   1.0000   1.0000   0.0000   0.0000   0.0000   0.0000

          k = 0.0000 0.2566 0.0000 (138628 PWs)   bands (ev):

   -32.9467 -32.5672 -23.3639 -16.4531 -14.7702 -13.9964 -12.9032 -11.5626
   -11.0351  -9.9627  -8.6445  -3.2962  -0.2257   1.1165   1.5031

     occupation numbers 
     1.0000   1.0000   1.0000   1.0000   1.0000   1.0000   1.0000   1.0000
     1.0000   1.0000   1.0000   0.0000   0.0000   0.0000   0.0000

          k = 0.0000 0.3208 0.0000 (138614 PWs)   bands (ev):

   -32.7724 -32.4514 -22.9405 -16.5529 -15.5550 -14.2036 -13.2292 -11.8161
   -11.1177 -10.5940  -8.8607  -2.9861  -0.0349   1.7106   2.9350

     occupation numbers 
     1.0000   1.0000   1.0000   1.0000   1.0000   1.0000   1.0000   1.0000
     1.0000   1.0000   1.0000   0.0000   0.0000   0.0000   0.0000

          k = 0.0000 0.3849 0.0000 (138514 PWs)   bands (ev):

   -32.5995 -32.3430 -22.4254 -17.2835 -15.7364 -14.3960 -13.5184 -12.0367
   -11.1969 -11.1280  -9.0354  -2.7647   0.1860   1.9214   3.1581

     occupation numbers 
     1.0000   1.0000   1.0000   1.0000   1.0000   1.0000   1.0000   1.0000
     1.0000   1.0000   1.0000   0.0000   0.0000   0.0000   0.0000

          k = 0.0000 0.4491 0.0000 (138512 PWs)   bands (ev):

   -32.4491 -32.2577 -21.8236 -18.2576 -15.6541 -14.5636 -13.7432 -12.2107
   -11.5284 -11.2619  -9.1630  -2.6086   0.4027   1.5931   4.3181

     occupation numbers 
     1.0000   1.0000   1.0000   1.0000   1.0000   1.0000   1.0000   1.0000
     1.0000   1.0000   1.0000   0.0000   0.0000   0.0000   0.0000

          k = 0.0000 0.5132 0.0000 (138448 PWs)   bands (ev):

   -32.3424 -32.2072 -21.1616 -19.1789 -15.5666 -14.6802 -13.8849 -12.3256
   -11.7730 -11.3045  -9.2405  -2.5078   0.6027   1.2058   4.6724

     occupation numbers 
     1.0000   1.0000   1.0000   1.0000   1.0000   1.0000   1.0000   1.0000
     1.0000   1.0000   1.0000   0.0000   0.0000   0.0000   0.0000

          k = 0.0000-0.5774 0.0000 (138400 PWs)   bands (ev):

   -32.3021 -32.1924 -20.7012 -19.7298 -15.5320 -14.7226 -13.9333 -12.3665
   -11.8546 -11.3193  -9.2666  -2.4714   0.7451   0.9861   4.7895

     occupation numbers 
     1.0000   1.0000   1.0000   1.0000   1.0000   1.0000   1.0000   1.0000
     1.0000   1.0000   1.0000   0.0000   0.0000   0.0000   0.0000

          k = 0.0556 0.0962 0.0000 (138747 PWs)   bands (ev):

   -33.2531 -32.7805 -23.9781 -16.6842 -13.8476 -12.6350 -12.2461 -11.0038
   -10.9055  -8.4506  -8.1123  -4.2765  -0.4186  -0.0153   0.0696

     occupation numbers 
     1.0000   1.0000   1.0000   1.0000   1.0000   1.0000   1.0000   1.0000
     1.0000   1.0000   1.0000   0.0000   0.0000   0.0000   0.0000

          k = 0.0556 0.1604 0.0000 (138708 PWs)   bands (ev):

   -33.1519 -32.7089 -23.7887 -16.5938 -13.9573 -13.3078 -12.5074 -11.1760
   -10.9743  -9.0037  -8.3617  -3.8324  -0.2892   0.3994   0.4850

     occupation numbers 
     1.0000   1.0000   1.0000   1.0000   1.0000   1.0000   1.0000   1.0000
     1.0000   1.0000   1.0000   0.0000   0.0000   0.0000   0.0000

          k = 0.0556 0.2245 0.0000 (138662 PWs)   bands (ev):

   -33.0115 -32.6114 -23.5052 -16.4853 -14.3471 -13.9370 -12.8317 -11.4141
   -11.0596  -9.6373  -8.6280  -3.3741  -0.1545   0.8863   1.1417

     occupation numbers 
     1.0000   1.0000   1.0000   1.0000   1.0000   1.0000   1.0000   1.0000
     1.0000   1.0000   1.0000   0.0000   0.0000   0.0000   0.0000

          k = 0.0556 0.2887 0.0000 (138649 PWs)   bands (ev):

   -32.8457 -32.4993 -23.1282 -16.4429 -15.1964 -14.1683 -13.1720 -11.6757
   -11.1594 -10.2590  -8.8679  -2.9816   0.0109   1.4782   1.8938

     occupation numbers 
     1.0000   1.0000   1.0000   1.0000   1.0000   1.0000   1.0000   1.0000
     1.0000   1.0000   1.0000   0.0000   0.0000   0.0000   0.0000

          k = 0.0556 0.3528 0.0000 (138564 PWs)   bands (ev):

   -32.6718 -32.3869 -22.6586 -16.8425 -15.6930 -14.3579 -13.4934 -11.9236
   -11.2767 -10.7942  -9.0653  -2.6786   0.2070   1.9486   2.7389

     occupation numbers 
     1.0000   1.0000   1.0000   1.0000   1.0000   1.0000   1.0000   1.0000
     1.0000   1.0000   1.0000   0.0000   0.0000   0.0000   0.0000

          k = 0.0556 0.4170 0.0000 (138494 PWs)   bands (ev):

   -32.5097 -32.2898 -22.0987 -17.7463 -15.6888 -14.5246 -13.7690 -12.1340
   -11.4518 -11.1478  -9.2155  -2.4534   0.4079   1.8166   3.6978

     occupation numbers 
     1.0000   1.0000   1.0000   1.0000   1.0000   1.0000   1.0000   1.0000
     1.0000   1.0000   1.0000   0.0000   0.0000   0.0000   0.0000

          k = 0.0556 0.4811 0.0000 (138498 PWs)   bands (ev):

   -32.3802 -32.2222 -21.4599 -18.7046 -15.6004 -14.6464 -13.9740 -12.2901
   -11.6787 -11.2878  -9.3167  -2.2920   0.5934   1.4148   4.4077

     occupation numbers 
     1.0000   1.0000   1.0000   1.0000   1.0000   1.0000   1.0000   1.0000
     1.0000   1.0000   1.0000   0.0000   0.0000   0.0000   0.0000

          k = 0.0556 0.5453 0.0000 (138420 PWs)   bands (ev):

   -32.3047 -32.1910 -20.8193 -19.5196 -15.5420 -14.7091 -14.0850 -12.3748
   -11.8156 -11.3370  -9.3676  -2.2017   0.7663   1.0809   4.6294

     occupation numbers 
     1.0000   1.0000   1.0000   1.0000   1.0000   1.0000   1.0000   1.0000
     1.0000   1.0000   1.0000   0.0000   0.0000   0.0000   0.0000

          k = 0.1111 0.1925 0.0000 (138689 PWs)   bands (ev):

   -33.0338 -32.6267 -23.5523 -16.4992 -14.1002 -13.9852 -12.8458 -11.3053
   -11.1273  -9.4712  -8.6819  -3.3682   0.0313   0.7975   0.8419

     occupation numbers 
     1.0000   1.0000   1.0000   1.0000   1.0000   1.0000   1.0000   1.0000
     1.0000   1.0000   1.0000   0.0000   0.0000   0.0000   0.0000

          k = 0.1111 0.2566 0.0000 (138628 PWs)   bands (ev):

   -32.8844 -32.5248 -23.2220 -16.4227 -14.7925 -14.2801 -13.2158 -11.5089
   -11.2903  -9.9781  -8.9915  -2.8783   0.3190   1.3395   1.4828

     occupation numbers 
     1.0000   1.0000   1.0000   1.0000   1.0000   1.0000   1.0000   1.0000
     1.0000   1.0000   1.0000   0.0000   0.0000   0.0000   0.0000

          k = 0.1111 0.3208 0.0000 (138626 PWs)   bands (ev):

   -32.7186 -32.4157 -22.7982 -16.5572 -15.4763 -14.4831 -13.5668 -11.7764
   -11.4252 -10.4668  -9.2379  -2.4377   0.5340   1.9036   2.3461

     occupation numbers 
     1.0000   1.0000   1.0000   1.0000   1.0000   1.0000   1.0000   1.0000
     1.0000   1.0000   1.0000   0.0000   0.0000   0.0000   0.0000

          k = 0.1111 0.3849 0.0000 (138553 PWs)   bands (ev):

   -32.5547 -32.3141 -22.2823 -17.2390 -15.6628 -14.6555 -13.8864 -12.0409
   -11.5454 -10.8800  -9.4206  -2.0691   0.7076   2.0472   3.2645

     occupation numbers 
     1.0000   1.0000   1.0000   1.0000   1.0000   1.0000   1.0000   1.0000
     1.0000   1.0000   1.0000   0.0000   0.0000   0.0000   0.0000

          k = 0.1111 0.4491 0.0000 (138517 PWs)   bands (ev):

   -32.4123 -32.2345 -21.6800 -18.1615 -15.6250 -14.7515 -14.1687 -12.2570
   -11.6529 -11.1784  -9.5476  -1.7693   0.8444   1.6876   3.9571

     occupation numbers 
     1.0000   1.0000   1.0000   1.0000   1.0000   1.0000   1.0000   1.0000
     1.0000   1.0000   1.0000   0.0000   0.0000   0.0000   0.0000

          k = 0.1111 0.5132 0.0000 (138422 PWs)   bands (ev):

   -32.3111 -32.1880 -21.0190 -19.0551 -15.5835 -14.7493 -14.3991 -12.3967
   -11.7375 -11.3472  -9.6230  -1.5515   0.9488   1.2999   4.2493

     occupation numbers 
     1.0000   1.0000   1.0000   1.0000   1.0000   1.0000   1.0000   1.0000
     1.0000   1.0000   1.0000   0.0000   0.0000   0.0000   0.0000

          k = 0.1111 0.5774 0.0000 (138394 PWs)   bands (ev):

   -32.2725 -32.1747 -20.5613 -19.5951 -15.5708 -14.7038 -14.5185 -12.4447
   -11.7714 -11.3994  -9.6481  -1.4665   1.0645   1.0646   4.3213

     occupation numbers 
     1.0000   1.0000   1.0000   1.0000   1.0000   1.0000   1.0000   1.0000
     1.0000   1.0000   1.0000   0.0000   0.0000   0.0000   0.0000

          k = 0.1667 0.2887 0.0000 (138593 PWs)   bands (ev):

   -32.7348 -32.4257 -22.8446 -16.4760 -15.2592 -14.6549 -13.5981 -11.6114
   -11.5933 -10.3063  -9.3543  -2.3263   0.8984   1.8396   1.9732

     occupation numbers 
     1.0000   1.0000   1.0000   1.0000   1.0000   1.0000   1.0000   1.0000
     1.0000   1.0000   1.0000   0.0000   0.0000   0.0000   0.0000

          k = 0.1667 0.3528 0.0000 (138557 PWs)   bands (ev):

   -32.5787 -32.3271 -22.3740 -16.8891 -15.5229 -14.9822 -13.9228 -11.9412
   -11.6685 -10.6418  -9.6342  -1.8041   1.2894   2.2322   2.6553

     occupation numbers 
     1.0000   1.0000   1.0000   1.0000   1.0000   1.0000   1.0000   1.0000
     1.0000   1.0000   1.0000   0.0000   0.0000   0.0000   0.0000

          k = 0.1667 0.4170 0.0000 (138505 PWs)   bands (ev):

   -32.4338 -32.2427 -21.8133 -17.6478 -15.6203 -15.1303 -14.2035 -12.2257
   -11.7132 -10.9671  -9.8231  -1.3373   1.4690   2.0096   3.4394

     occupation numbers 
     1.0000   1.0000   1.0000   1.0000   1.0000   1.0000   1.0000   1.0000
     1.0000   1.0000   1.0000   0.0000   0.0000   0.0000   0.0000

          k = 0.1667 0.4811 0.0000 (138488 PWs)   bands (ev):

   -32.3179 -32.1849 -21.1752 -18.5087 -15.7250 -15.0759 -14.4515 -12.4257
   -11.7182 -11.2435  -9.9393  -0.9321   1.5305   1.5716   3.8159

     occupation numbers 
     1.0000   1.0000   1.0000   1.0000   1.0000   1.0000   1.0000   1.0000
     1.0000   1.0000   1.0000   0.0000   0.0000   0.0000   0.0000

          k = 0.1667 0.5453 0.0000 (138485 PWs)   bands (ev):

   -32.2495 -32.1596 -20.5390 -19.2771 -15.7943 -14.9465 -14.6517 -12.5268
   -11.6856 -11.4282  -9.9953  -0.6503   1.1911   1.5937   3.8962

     occupation numbers 
     1.0000   1.0000   1.0000   1.0000   1.0000   1.0000   1.0000   1.0000
     1.0000   1.0000   1.0000   0.0000   0.0000   0.0000   0.0000

          k = 0.2222 0.3849 0.0000 (138485 PWs)   bands (ev):

   -32.4413 -32.2456 -21.8578 -17.4021 -15.5623 -15.4154 -14.1911 -12.2107
   -11.7500 -10.8406  -9.9692  -1.1961   1.8816   2.6205   2.7462

     occupation numbers 
     1.0000   1.0000   1.0000   1.0000   1.0000   1.0000   1.0000   1.0000
     1.0000   1.0000   1.0000   0.0000   0.0000   0.0000   0.0000

          k = 0.2222 0.4491 0.0000 (138494 PWs)   bands (ev):

   -32.3222 -32.1831 -21.2568 -18.0624 -16.0126 -15.2670 -14.4117 -12.4491
   -11.7426 -11.0757 -10.1996  -0.6473   1.7745   2.5946   3.4476

     occupation numbers 
     1.0000   1.0000   1.0000   1.0000   1.0000   1.0000   1.0000   1.0000
     1.0000   1.0000   1.0000   0.0000   0.0000   0.0000   0.0000

          k = 0.2222 0.5132 0.0000 (138504 PWs)   bands (ev):

   -32.2365 -32.1487 -20.6016 -18.7983 -16.2753 -15.1046 -14.6018 -12.5990
   -11.6692 -11.3158 -10.3261  -0.1732   1.4105   2.5519   3.5166

     occupation numbers 
     1.0000   1.0000   1.0000   1.0000   1.0000   1.0000   1.0000   1.0000
     1.0000   1.0000   1.0000   0.0000   0.0000   0.0000   0.0000

          k = 0.2222 0.5774 0.0000 (138486 PWs)   bands (ev):

   -32.2025 -32.1407 -20.1460 -19.2901 -16.3586 -15.0081 -14.7061 -12.6492
   -11.5554 -11.4915 -10.3658   0.0691   1.1821   2.5409   3.4936

     occupation numbers 
     1.0000   1.0000   1.0000   1.0000   1.0000   1.0000   1.0000   1.0000
     1.0000   1.0000   1.0000   0.0000   0.0000   0.0000   0.0000

          k = 0.2778 0.4811 0.0000 (138528 PWs)   bands (ev):

   -32.2323 -32.1446 -20.6300 -18.5368 -16.5614 -15.1333 -14.5789 -12.6291
   -11.6794 -11.2107 -10.4925  -0.0497   1.5267   3.2781   3.8144

     occupation numbers 
     1.0000   1.0000   1.0000   1.0000   1.0000   1.0000   1.0000   1.0000
     1.0000   1.0000   1.0000   0.0000   0.0000   0.0000   0.0000

          k = 0.2778 0.5453 0.0000 (138511 PWs)   bands (ev):

   -32.1759 -32.1324 -20.0021 -19.0819 -16.8693 -14.9875 -14.7233 -12.7253
   -11.5502 -11.3755 -10.6493   0.4269   1.2049   3.2085   3.7163

     occupation numbers 
     1.0000   1.0000   1.0000   1.0000   1.0000   1.0000   1.0000   1.0000
     1.0000   1.0000   1.0000   0.0000   0.0000   0.0000   0.0000

          k = 0.3333 0.5774 0.0000 (138474 PWs)   bands (ev):

   -32.1408 -32.1408 -19.4663 -19.4663 -17.1249 -14.8513 -14.8513 -12.7712
   -11.4353 -11.4353 -10.7958   0.8845   0.8845   3.0902   4.5548

     occupation numbers 
     1.0000   1.0000   1.0000   1.0000   1.0000   1.0000   1.0000   1.0000
     1.0000   1.0000   1.0000   0.0000   0.0000   0.0000   0.0000

     the Fermi energy is    -7.0728 ev

!    total energy              =    -120.13431304 Ry
     estimated scf accuracy    <          1.7E-13 Ry
     smearing contrib. (-TS)   =       0.00000000 Ry
     internal energy E=F+TS    =    -120.13431304 Ry

     The total energy is F=E-TS. E is the sum of the following terms:
     one-electron contribution =   -1712.14379470 Ry
     hartree contribution      =     858.65209391 Ry
     xc contribution           =     -25.85813507 Ry
     ewald contribution        =     759.21552281 Ry

     convergence has been achieved in  11 iterations

     Writing all to output data dir ../tmp/fgc.save/

     init_run     :     10.97s CPU     17.36s WALL (       1 calls)
     electrons    :    416.73s CPU    714.13s WALL (       1 calls)

     Called by init_run:
     wfcinit      :      8.78s CPU     14.53s WALL (       1 calls)
     wfcinit:atom :      0.09s CPU      0.15s WALL (       7 calls)
     wfcinit:wfcr :      8.28s CPU     13.61s WALL (       7 calls)
     potinit      :      0.82s CPU      0.91s WALL (       1 calls)
     hinit0       :      0.88s CPU      0.90s WALL (       1 calls)

     Called by electrons:
     c_bands      :    362.02s CPU    627.48s WALL (      12 calls)
     sum_band     :     43.97s CPU     71.25s WALL (      12 calls)
     v_of_rho     :      4.23s CPU      4.46s WALL (      12 calls)
     v_h          :      0.34s CPU      0.36s WALL (      12 calls)
     v_xc         :      3.88s CPU      4.09s WALL (      12 calls)
     newd         :      4.88s CPU      9.59s WALL (      12 calls)
     mix_rho      :      0.75s CPU      0.93s WALL (      12 calls)

     Called by c_bands:
     init_us_2    :      1.62s CPU      2.27s WALL (     175 calls)
     init_us_2:cp :      1.62s CPU      2.27s WALL (     175 calls)
     cegterg      :    301.63s CPU    520.63s WALL (      84 calls)

     Called by sum_band:
     sum_band:wei :      0.22s CPU      0.24s WALL (      12 calls)
     sum_band:loo :     38.36s CPU     61.89s WALL (      12 calls)
     sum_band:buf :      0.15s CPU      0.21s WALL (      84 calls)
     sum_band:ini :      0.84s CPU      1.22s WALL (      84 calls)
     sum_band:cal :     15.73s CPU     24.85s WALL (      84 calls)
     sum_band:bec :      0.00s CPU      0.00s WALL (      84 calls)
     addusdens    :      2.29s CPU      5.24s WALL (      12 calls)
     addusd:skk   :      0.03s CPU      0.05s WALL (      24 calls)
     addusd:dgemm :      0.78s CPU      2.29s WALL (      24 calls)
     addusd:qvan2 :      0.73s CPU      1.87s WALL (      24 calls)

     Called by *egterg:
     cdiaghg      :     21.71s CPU     37.95s WALL (     370 calls)
     cegterg:over :     52.45s CPU     75.13s WALL (     293 calls)
     cegterg:upda :      6.95s CPU     13.24s WALL (     293 calls)
     cegterg:last :      7.82s CPU     10.69s WALL (     184 calls)
     h_psi        :    176.42s CPU    322.90s WALL (     384 calls)
     s_psi        :      4.45s CPU      5.91s WALL (     384 calls)
     g_psi        :      0.29s CPU      0.24s WALL (     293 calls)

     Called by h_psi:
     h_psi:calbec :     53.45s CPU     89.34s WALL (     384 calls)
     vloc_psi     :    113.51s CPU    215.54s WALL (     384 calls)
     add_vuspsi   :      9.12s CPU     17.50s WALL (     384 calls)

     General routines
     calbec       :     69.18s CPU    114.19s WALL (     468 calls)
     fft          :      2.83s CPU      3.06s WALL (     133 calls)
     ffts         :      0.60s CPU      0.55s WALL (      12 calls)
     fftw         :    122.59s CPU    233.79s WALL (    8222 calls)

     Parallel routines

     PWSCF        :   7m 7.93s CPU  12m13.27s WALL


   This run was terminated on:  18:10:22  29Feb2024            

=------------------------------------------------------------------------------=
   JOB DONE.
=------------------------------------------------------------------------------=
