
     Program PWSCF v.7.1 starts on 20Jan2024 at  3:17:45 

     This program is part of the open-source Quantum ESPRESSO suite
     for quantum simulation of materials; please cite
         "P. Giannozzi et al., J. Phys.:Condens. Matter 21 395502 (2009);
         "P. Giannozzi et al., J. Phys.:Condens. Matter 29 465901 (2017);
         "P. Giannozzi et al., J. Chem. Phys. 152 154105 (2020);
          URL http://www.quantum-espresso.org", 
     in publications or presentations arising from this work. More details at
     http://www.quantum-espresso.org/quote

     Parallel version (MPI), running on    50 processors

     MPI processes distributed on     1 nodes
     350652 MiB available memory on the printing compute node when the environment starts

     Reading input from kpoint.4.in

     Current dimensions of program PWSCF are:
     Max number of different atomic species (ntypx) = 10
     Max number of k-points (npk) =  40000
     Max angular momentum in pseudopotentials (lmaxx) =  4
     Message from routine setup:
     using ibrav=0 with symmetry is DISCOURAGED, use correct ibrav instead

     R & G space division:  proc/nbgrp/npool/nimage =      50
     Subspace diagonalization in iterative solution of the eigenvalue problem:
     a serial algorithm will be used


     Parallelization info
     --------------------
     sticks:   dense  smooth     PW     G-vecs:    dense   smooth      PW
     Min         175     175     46                54253    54253    7366
     Max         176     176     47                54271    54271    7387
     Sum        8763    8763   2323              2713169  2713169  368693

     Using Slab Decomposition



     bravais-lattice index     =            0
     lattice parameter (alat)  =       4.9702  a.u.
     unit-cell volume          =    1084.4437 (a.u.)^3
     number of atoms/cell      =            8
     number of atomic types    =            2
     number of electrons       =        44.00
     number of Kohn-Sham states=           26
     kinetic-energy cutoff     =     700.0000  Ry
     charge density cutoff     =    2800.0000  Ry
     scf convergence threshold =      1.0E-08
     mixing beta               =       0.7000
     number of iterations used =            8  plain     mixing
     Exchange-correlation=  SLA  PW   PBX  PBC
                           (   1   4   3   4   0   0   0)

     celldm(1)=   4.970237  celldm(2)=   0.000000  celldm(3)=   0.000000
     celldm(4)=   0.000000  celldm(5)=   0.000000  celldm(6)=   0.000000

     crystal axes: (cart. coord. in units of alat)
               a(1) = (   1.000000   0.000000   0.000000 )  
               a(2) = (   0.000000   1.594189   0.000000 )  
               a(3) = (   0.000000   0.000000   5.540333 )  

     reciprocal axes: (cart. coord. in units 2 pi/alat)
               b(1) = (  1.000000  0.000000  0.000000 )  
               b(2) = (  0.000000  0.627278  0.000000 )  
               b(3) = (  0.000000  0.000000  0.180495 )  


     PseudoPot. # 1 for C  read from file:
     ../pseudo/c_pbe_v1.2.uspp.F.UPF
     MD5 check sum: d1aef80898a10debaa0f26306b886e00
     Pseudo is Ultrasoft + core correction, Zval =  4.0
     Generated by new atomic code, or converted to UPF format
     Using radial grid of  721 points,  4 beta functions with: 
                l(1) =   0
                l(2) =   0
                l(3) =   1
                l(4) =   1
     Q(r) pseudized with  8 coefficients,  rinner =    1.100   1.100   1.100


     PseudoPot. # 2 for F  read from file:
     ../pseudo/f_pbe_v1.4.uspp.F.UPF
     MD5 check sum: 4c38b6a325caf53ec0e86aed9459de46
     Pseudo is Ultrasoft, Zval =  7.0
     Generated by new atomic code, or converted to UPF format
     Using radial grid of  799 points,  4 beta functions with: 
                l(1) =   0
                l(2) =   0
                l(3) =   1
                l(4) =   1
     Q(r) pseudized with  8 coefficients,  rinner =    0.950   0.950   0.950


     atomic species   valence    mass     pseudopotential
        C              4.00    12.01070     C ( 1.00)
        F              7.00    18.99840     F ( 1.00)

      8 Sym. Ops., with inversion, found ( 4 have fractional translation)


                                    s                        frac. trans.

      isym =  1     identity                                     

 cryst.   s( 1) = (     1          0          0      )
                  (     0          1          0      )
                  (     0          0          1      )

 cart.    s( 1) = (  1.0000000  0.0000000  0.0000000 )
                  (  0.0000000  1.0000000  0.0000000 )
                  (  0.0000000  0.0000000  1.0000000 )


      isym =  2     180 deg rotation - cart. axis [0,0,1]        

 cryst.   s( 2) = (    -1          0          0      )    f =(  0.5000000 )
                  (     0         -1          0      )       (  0.5000000 )
                  (     0          0          1      )       (  0.0000000 )

 cart.    s( 2) = ( -1.0000000  0.0000000  0.0000000 )    f =(  0.5000000 )
                  (  0.0000000 -1.0000000  0.0000000 )       (  0.7970945 )
                  (  0.0000000  0.0000000  1.0000000 )       (  0.0000000 )


      isym =  3     180 deg rotation - cart. axis [0,1,0]        

 cryst.   s( 3) = (    -1          0          0      )    f =(  0.5000000 )
                  (     0          1          0      )       ( -0.5000000 )
                  (     0          0         -1      )       (  0.0000000 )

 cart.    s( 3) = ( -1.0000000  0.0000000  0.0000000 )    f =(  0.5000000 )
                  (  0.0000000  1.0000000  0.0000000 )       ( -0.7970945 )
                  (  0.0000000  0.0000000 -1.0000000 )       (  0.0000000 )


      isym =  4     180 deg rotation - cart. axis [1,0,0]        

 cryst.   s( 4) = (     1          0          0      )
                  (     0         -1          0      )
                  (     0          0         -1      )

 cart.    s( 4) = (  1.0000000  0.0000000  0.0000000 )
                  (  0.0000000 -1.0000000  0.0000000 )
                  (  0.0000000  0.0000000 -1.0000000 )


      isym =  5     inversion                                    

 cryst.   s( 5) = (    -1          0          0      )
                  (     0         -1          0      )
                  (     0          0         -1      )

 cart.    s( 5) = ( -1.0000000  0.0000000  0.0000000 )
                  (  0.0000000 -1.0000000  0.0000000 )
                  (  0.0000000  0.0000000 -1.0000000 )


      isym =  6     inv. 180 deg rotation - cart. axis [0,0,1]   

 cryst.   s( 6) = (     1          0          0      )    f =(  0.5000000 )
                  (     0          1          0      )       ( -0.5000000 )
                  (     0          0         -1      )       (  0.0000000 )

 cart.    s( 6) = (  1.0000000  0.0000000  0.0000000 )    f =(  0.5000000 )
                  (  0.0000000  1.0000000  0.0000000 )       ( -0.7970945 )
                  (  0.0000000  0.0000000 -1.0000000 )       (  0.0000000 )


      isym =  7     inv. 180 deg rotation - cart. axis [0,1,0]   

 cryst.   s( 7) = (     1          0          0      )    f =(  0.5000000 )
                  (     0         -1          0      )       (  0.5000000 )
                  (     0          0          1      )       (  0.0000000 )

 cart.    s( 7) = (  1.0000000  0.0000000  0.0000000 )    f =(  0.5000000 )
                  (  0.0000000 -1.0000000  0.0000000 )       (  0.7970945 )
                  (  0.0000000  0.0000000  1.0000000 )       (  0.0000000 )


      isym =  8     inv. 180 deg rotation - cart. axis [1,0,0]   

 cryst.   s( 8) = (    -1          0          0      )
                  (     0          1          0      )
                  (     0          0          1      )

 cart.    s( 8) = ( -1.0000000  0.0000000  0.0000000 )
                  (  0.0000000  1.0000000  0.0000000 )
                  (  0.0000000  0.0000000  1.0000000 )


   Cartesian axes

     site n.     atom                  positions (alat units)
         1           C   tau(   1) = (   0.5000000   0.2256478   0.1937169  )
         2           C   tau(   2) = (   0.0000000   1.0227422  -0.1937169  )
         3           C   tau(   3) = (   0.0000000   0.5714467   0.1937169  )
         4           C   tau(   4) = (   0.5000000   1.3685411  -0.1937169  )
         5           F   tau(   5) = (   0.5000000  -0.0095812  -0.6719762  )
         6           F   tau(   6) = (   0.0000000   0.7875132   0.6719762  )
         7           F   tau(   7) = (   0.0000000   0.8066757  -0.6719762  )
         8           F   tau(   8) = (   0.5000000   0.0095812   0.6719762  )

   Crystallographic axes

     site n.     atom                  positions (cryst. coord.)
         1           C   tau(   1) = (  0.5000000  0.1415439  0.0349649  )
         2           C   tau(   2) = (  0.0000000  0.6415439 -0.0349649  )
         3           C   tau(   3) = (  0.0000000  0.3584561  0.0349649  )
         4           C   tau(   4) = (  0.5000000  0.8584561 -0.0349649  )
         5           F   tau(   5) = (  0.5000000 -0.0060101 -0.1212881  )
         6           F   tau(   6) = (  0.0000000  0.4939899  0.1212881  )
         7           F   tau(   7) = (  0.0000000  0.5060101 -0.1212881  )
         8           F   tau(   8) = (  0.5000000  0.0060101  0.1212881  )

     number of k points=     9  Marzari-Vanderbilt smearing, width (Ry)=  0.0200
                       cart. coord. in units 2pi/alat
        k(    1) = (   0.0000000   0.0000000   0.0000000), wk =   0.1250000
        k(    2) = (   0.0000000   0.1568196   0.0000000), wk =   0.2500000
        k(    3) = (   0.0000000  -0.3136391   0.0000000), wk =   0.1250000
        k(    4) = (   0.2500000   0.0000000   0.0000000), wk =   0.2500000
        k(    5) = (   0.2500000   0.1568196   0.0000000), wk =   0.5000000
        k(    6) = (   0.2500000  -0.3136391   0.0000000), wk =   0.2500000
        k(    7) = (  -0.5000000   0.0000000   0.0000000), wk =   0.1250000
        k(    8) = (  -0.5000000   0.1568196   0.0000000), wk =   0.2500000
        k(    9) = (  -0.5000000  -0.3136391   0.0000000), wk =   0.1250000

                       cryst. coord.
        k(    1) = (   0.0000000   0.0000000   0.0000000), wk =   0.1250000
        k(    2) = (   0.0000000   0.2500000   0.0000000), wk =   0.2500000
        k(    3) = (   0.0000000  -0.5000000   0.0000000), wk =   0.1250000
        k(    4) = (   0.2500000   0.0000000   0.0000000), wk =   0.2500000
        k(    5) = (   0.2500000   0.2500000   0.0000000), wk =   0.5000000
        k(    6) = (   0.2500000  -0.5000000   0.0000000), wk =   0.2500000
        k(    7) = (  -0.5000000   0.0000000   0.0000000), wk =   0.1250000
        k(    8) = (  -0.5000000   0.2500000   0.0000000), wk =   0.2500000
        k(    9) = (  -0.5000000  -0.5000000   0.0000000), wk =   0.1250000

     Dense  grid:  2713169 G-vectors     FFT dimensions: (  90, 144, 480)

     Dynamical RAM for                 wfc:       2.69 MB

     Dynamical RAM for     wfc (w. buffer):      26.91 MB

     Dynamical RAM for           str. fact:       1.66 MB

     Dynamical RAM for           local pot:       0.00 MB

     Dynamical RAM for          nlocal pot:       6.62 MB

     Dynamical RAM for                qrad:       2.42 MB

     Dynamical RAM for          rho,v,vnew:       5.45 MB

     Dynamical RAM for               rhoin:       1.82 MB

     Dynamical RAM for            rho*nmix:      13.25 MB

     Dynamical RAM for           G-vectors:       3.52 MB

     Dynamical RAM for          h,s,v(r/c):       0.12 MB

     Dynamical RAM for          <psi|beta>:       0.03 MB

     Dynamical RAM for                 psi:       5.38 MB

     Dynamical RAM for                hpsi:       5.38 MB

     Dynamical RAM for                spsi:       5.38 MB

     Dynamical RAM for      wfcinit/wfcrot:       6.65 MB

     Dynamical RAM for           addusdens:      38.92 MB

     Dynamical RAM for          addusforce:      44.30 MB

     Dynamical RAM for         addusstress:      41.40 MB

     Estimated static dynamical RAM per process >      55.83 MB

     Estimated max dynamical RAM per process >     113.38 MB

     Estimated total dynamical RAM >       5.54 GB

     Initial potential from superposition of free atoms

     starting charge      43.9998, renormalised to      44.0000

     negative rho (up, down):  6.060E-03 0.000E+00
     Starting wfcs are   32 randomized atomic wfcs

     total cpu time spent up to now is       19.1 secs

     Self-consistent Calculation

     iteration #  1     ecut=   700.00 Ry     beta= 0.70
     Davidson diagonalization with overlap

---- Real-time Memory Report at c_bands before calling an iterative solver
           106 MiB given to the printing process from OS
             0 MiB allocation reported by mallinfo(arena+hblkhd)
        346690 MiB available memory on the node where the printing process lives
------------------
     ethr =  1.00E-02,  avg # of iterations =  3.2

     negative rho (up, down):  1.632E-03 0.000E+00

     total cpu time spent up to now is       88.9 secs

     total energy              =    -240.10620866 Ry
     estimated scf accuracy    <       0.44594250 Ry

     iteration #  2     ecut=   700.00 Ry     beta= 0.70
     Davidson diagonalization with overlap

---- Real-time Memory Report at c_bands before calling an iterative solver
           141 MiB given to the printing process from OS
             0 MiB allocation reported by mallinfo(arena+hblkhd)
        344892 MiB available memory on the node where the printing process lives
------------------
     ethr =  1.01E-03,  avg # of iterations =  3.8

     negative rho (up, down):  1.016E-03 0.000E+00

     total cpu time spent up to now is      164.4 secs

     total energy              =    -240.12494569 Ry
     estimated scf accuracy    <       0.44910955 Ry

     iteration #  3     ecut=   700.00 Ry     beta= 0.70
     Davidson diagonalization with overlap

---- Real-time Memory Report at c_bands before calling an iterative solver
           146 MiB given to the printing process from OS
             0 MiB allocation reported by mallinfo(arena+hblkhd)
        344804 MiB available memory on the node where the printing process lives
------------------
     ethr =  1.01E-03,  avg # of iterations =  2.2

     negative rho (up, down):  1.867E-04 0.000E+00

     total cpu time spent up to now is      222.0 secs

     total energy              =    -240.24208867 Ry
     estimated scf accuracy    <       0.02166722 Ry

     iteration #  4     ecut=   700.00 Ry     beta= 0.70
     Davidson diagonalization with overlap

---- Real-time Memory Report at c_bands before calling an iterative solver
           147 MiB given to the printing process from OS
             0 MiB allocation reported by mallinfo(arena+hblkhd)
        344716 MiB available memory on the node where the printing process lives
------------------
     ethr =  4.92E-05,  avg # of iterations =  3.3

     negative rho (up, down):  3.366E-05 0.000E+00

     total cpu time spent up to now is      288.5 secs

     total energy              =    -240.24439994 Ry
     estimated scf accuracy    <       0.00176085 Ry

     iteration #  5     ecut=   700.00 Ry     beta= 0.70
     Davidson diagonalization with overlap

---- Real-time Memory Report at c_bands before calling an iterative solver
           149 MiB given to the printing process from OS
             0 MiB allocation reported by mallinfo(arena+hblkhd)
        344628 MiB available memory on the node where the printing process lives
------------------
     ethr =  4.00E-06,  avg # of iterations =  4.2

     negative rho (up, down):  1.258E-06 0.000E+00

     total cpu time spent up to now is      371.3 secs

     total energy              =    -240.24476761 Ry
     estimated scf accuracy    <       0.00002412 Ry

     iteration #  6     ecut=   700.00 Ry     beta= 0.70
     Davidson diagonalization with overlap

---- Real-time Memory Report at c_bands before calling an iterative solver
           151 MiB given to the printing process from OS
             0 MiB allocation reported by mallinfo(arena+hblkhd)
        344540 MiB available memory on the node where the printing process lives
------------------
     ethr =  5.48E-08,  avg # of iterations =  3.3

     negative rho (up, down):  1.356E-06 0.000E+00

     total cpu time spent up to now is      443.5 secs

     total energy              =    -240.24477863 Ry
     estimated scf accuracy    <       0.00001848 Ry

     iteration #  7     ecut=   700.00 Ry     beta= 0.70
     Davidson diagonalization with overlap

---- Real-time Memory Report at c_bands before calling an iterative solver
           152 MiB given to the printing process from OS
             0 MiB allocation reported by mallinfo(arena+hblkhd)
        344458 MiB available memory on the node where the printing process lives
------------------
     ethr =  4.20E-08,  avg # of iterations =  3.3

     negative rho (up, down):  1.359E-06 0.000E+00

     total cpu time spent up to now is      510.8 secs

     total energy              =    -240.24477931 Ry
     estimated scf accuracy    <       0.00000187 Ry

     iteration #  8     ecut=   700.00 Ry     beta= 0.70
     Davidson diagonalization with overlap

---- Real-time Memory Report at c_bands before calling an iterative solver
           154 MiB given to the printing process from OS
             0 MiB allocation reported by mallinfo(arena+hblkhd)
        344368 MiB available memory on the node where the printing process lives
------------------
     ethr =  4.26E-09,  avg # of iterations =  3.2

     negative rho (up, down):  1.355E-06 0.000E+00

     total cpu time spent up to now is      580.1 secs

     total energy              =    -240.24478003 Ry
     estimated scf accuracy    <       0.00000048 Ry

     iteration #  9     ecut=   700.00 Ry     beta= 0.70
     Davidson diagonalization with overlap

---- Real-time Memory Report at c_bands before calling an iterative solver
           156 MiB given to the printing process from OS
             0 MiB allocation reported by mallinfo(arena+hblkhd)
        344288 MiB available memory on the node where the printing process lives
------------------
     ethr =  1.09E-09,  avg # of iterations =  2.0

     negative rho (up, down):  1.342E-06 0.000E+00

     total cpu time spent up to now is      632.5 secs

     total energy              =    -240.24478010 Ry
     estimated scf accuracy    <       0.00000001 Ry

     iteration # 10     ecut=   700.00 Ry     beta= 0.70
     Davidson diagonalization with overlap

---- Real-time Memory Report at c_bands before calling an iterative solver
           157 MiB given to the printing process from OS
             0 MiB allocation reported by mallinfo(arena+hblkhd)
        344206 MiB available memory on the node where the printing process lives
------------------
     ethr =  2.40E-11,  avg # of iterations =  3.8

     negative rho (up, down):  1.338E-06 0.000E+00

     total cpu time spent up to now is      710.7 secs

     End of self-consistent calculation

          k = 0.0000 0.0000 0.0000 (339089 PWs)   bands (ev):

   -28.1818 -27.9007 -26.6479 -26.5304 -18.8082 -15.5394 -13.5803 -11.1216
   -10.3478  -9.9785  -8.6972  -8.2794  -7.6820  -7.5563  -7.3211  -5.4467
    -5.3033  -5.2483  -4.5957  -4.2704  -4.0420  -2.7215   0.8203   3.2719
     3.3867   4.4204

     occupation numbers 
     1.0000   1.0000   1.0000   1.0000   1.0000   1.0000   1.0000   1.0000
     1.0000   1.0000   1.0000   1.0000   1.0000   1.0000   1.0000   1.0000
     1.0000   1.0000   1.0000   1.0000   1.0000   1.0000   0.0000   0.0000
     0.0000   0.0000

          k = 0.0000 0.1568 0.0000 (339063 PWs)   bands (ev):

   -28.0387 -27.8043 -26.8067 -26.6871 -18.5035 -16.3982 -12.8719 -11.0683
   -10.0143  -9.8451  -8.4570  -8.3671  -8.1161  -7.4184  -7.1286  -5.7347
    -5.6310  -5.4580  -4.8127  -4.2561  -3.8568  -2.9583   1.4724   3.3310
     3.4004   4.6540

     occupation numbers 
     1.0000   1.0000   1.0000   1.0000   1.0000   1.0000   1.0000   1.0000
     1.0000   1.0000   1.0000   1.0000   1.0000   1.0000   1.0000   1.0000
     1.0000   1.0000   1.0000   1.0000   1.0000   1.0000   0.0000   0.0000
     0.0000   0.0000

          k = 0.0000-0.3136 0.0000 (338886 PWs)   bands (ev):

   -27.7662 -27.7662 -26.9396 -26.9396 -17.6370 -17.6370 -11.7853 -11.7853
    -9.3254  -9.3254  -8.7733  -8.7733  -7.8775  -7.8775  -6.3687  -6.3687
    -5.6964  -5.6964  -4.7145  -4.7145  -3.4299  -3.4299   2.7288   2.7288
     3.8087   3.8087

     occupation numbers 
     1.0000   1.0000   1.0000   1.0000   1.0000   1.0000   1.0000   1.0000
     1.0000   1.0000   1.0000   1.0000   1.0000   1.0000   1.0000   1.0000
     1.0000   1.0000   1.0000   1.0000   1.0000   1.0000   0.0000   0.0000
     0.0000   0.0000

          k = 0.2500 0.0000 0.0000 (339186 PWs)   bands (ev):

   -27.7874 -27.5539 -26.6679 -26.5567 -18.0359 -14.7954 -13.4858 -11.0280
   -10.5481 -10.3107 -10.0127  -8.9727  -8.9261  -7.8116  -7.1244  -6.3640
    -6.2884  -5.7828  -5.4197  -4.7153  -4.4551  -4.3310   1.8196   3.8283
     5.7680   6.2976

     occupation numbers 
     1.0000   1.0000   1.0000   1.0000   1.0000   1.0000   1.0000   1.0000
     1.0000   1.0000   1.0000   1.0000   1.0000   1.0000   1.0000   1.0000
     1.0000   1.0000   1.0000   1.0000   1.0000   1.0000   0.0000   0.0000
     0.0000   0.0000

          k = 0.2500 0.1568 0.0000 (339198 PWs)   bands (ev):

   -27.6753 -27.4811 -26.7735 -26.6658 -17.7459 -15.7045 -12.8663 -10.9729
   -10.8498 -10.4117  -9.5302  -9.2958  -8.5252  -8.2289  -6.9093  -6.2725
    -6.2430  -5.4967  -5.1698  -4.9522  -4.6663  -4.3943   2.2352   4.4489
     5.3418   6.1571

     occupation numbers 
     1.0000   1.0000   1.0000   1.0000   1.0000   1.0000   1.0000   1.0000
     1.0000   1.0000   1.0000   1.0000   1.0000   1.0000   1.0000   1.0000
     1.0000   1.0000   1.0000   1.0000   1.0000   1.0000   0.0000   0.0000
     0.0000   0.0000

          k = 0.2500-0.3136 0.0000 (339196 PWs)   bands (ev):

   -27.4611 -27.4611 -26.8516 -26.8516 -16.9160 -16.9160 -11.9652 -11.9652
   -10.5275 -10.5275  -9.3001  -9.3001  -8.3919  -8.3919  -6.2951  -6.2951
    -6.0239  -6.0239  -5.1036  -5.1036  -4.4953  -4.4953   3.4528   3.4528
     5.8252   5.8252

     occupation numbers 
     1.0000   1.0000   1.0000   1.0000   1.0000   1.0000   1.0000   1.0000
     1.0000   1.0000   1.0000   1.0000   1.0000   1.0000   1.0000   1.0000
     1.0000   1.0000   1.0000   1.0000   1.0000   1.0000   0.0000   0.0000
     0.0000   0.0000

          k =-0.5000 0.0000 0.0000 (339206 PWs)   bands (ev):

   -27.0317 -27.0317 -26.8889 -26.8889 -15.8150 -15.8150 -12.7489 -12.7489
   -10.9403 -10.9403  -9.5683  -9.5683  -8.9121  -8.9121  -7.0846  -7.0846
    -6.3098  -6.3098  -5.8502  -5.8502  -4.9378  -4.9378   3.7858   3.7858
     5.2740   5.2740

     occupation numbers 
     1.0000   1.0000   1.0000   1.0000   1.0000   1.0000   1.0000   1.0000
     1.0000   1.0000   1.0000   1.0000   1.0000   1.0000   1.0000   1.0000
     1.0000   1.0000   1.0000   1.0000   1.0000   1.0000   0.0000   0.0000
     0.0000   0.0000

          k =-0.5000 0.1568 0.0000 (339256 PWs)   bands (ev):

   -27.0241 -27.0241 -26.8850 -26.8850 -15.5944 -15.5944 -13.5397 -13.5397
   -10.6153 -10.6153  -9.8611  -9.8611  -8.5804  -8.5804  -6.7408  -6.7408
    -6.5125  -6.5125  -5.6636  -5.6636  -4.7209  -4.7209   3.9686   3.9686
     5.0587   5.0587

     occupation numbers 
     1.0000   1.0000   1.0000   1.0000   1.0000   1.0000   1.0000   1.0000
     1.0000   1.0000   1.0000   1.0000   1.0000   1.0000   1.0000   1.0000
     1.0000   1.0000   1.0000   1.0000   1.0000   1.0000   0.0000   0.0000
     0.0000   0.0000

          k =-0.5000-0.3136 0.0000 (339276 PWs)   bands (ev):

   -27.0165 -27.0165 -26.8812 -26.8812 -15.1892 -15.1892 -14.3301 -14.3301
   -10.5321 -10.5321 -10.0350 -10.0350  -8.2789  -8.2789  -6.9855  -6.9855
    -5.7709  -5.7709  -5.6908  -5.6908  -4.6836  -4.6836   4.1981   4.1981
     5.1444   5.1444

     occupation numbers 
     1.0000   1.0000   1.0000   1.0000   1.0000   1.0000   1.0000   1.0000
     1.0000   1.0000   1.0000   1.0000   1.0000   1.0000   1.0000   1.0000
     1.0000   1.0000   1.0000   1.0000   1.0000   1.0000   0.0000   0.0000
     0.0000   0.0000

     the Fermi energy is    -0.9617 ev

!    total energy              =    -240.24478010 Ry
     estimated scf accuracy    <          1.8E-09 Ry
     smearing contrib. (-TS)   =       0.00000000 Ry
     internal energy E=F+TS    =    -240.24478010 Ry

     The total energy is F=E-TS. E is the sum of the following terms:
     one-electron contribution =   -1256.48269675 Ry
     hartree contribution      =     642.01661125 Ry
     xc contribution           =     -51.69536731 Ry
     ewald contribution        =     425.91667271 Ry

     convergence has been achieved in  10 iterations

     negative rho (up, down):  1.338E-06 0.000E+00

     Forces acting on atoms (cartesian axes, Ry/au):

     atom    1 type  1   force =     0.00000000    0.00119227   -0.00029568
     atom    2 type  1   force =     0.00000000    0.00119227    0.00029568
     atom    3 type  1   force =     0.00000000   -0.00119227   -0.00029568
     atom    4 type  1   force =     0.00000000   -0.00119227    0.00029568
     atom    5 type  2   force =     0.00000000   -0.00008673   -0.00007521
     atom    6 type  2   force =     0.00000000   -0.00008673    0.00007521
     atom    7 type  2   force =     0.00000000    0.00008673   -0.00007521
     atom    8 type  2   force =     0.00000000    0.00008673    0.00007521
     The non-local contrib.  to forces
     atom    1 type  1   force =     0.00000000   -0.15580722    0.36616566
     atom    2 type  1   force =     0.00000000   -0.15580722   -0.36616566
     atom    3 type  1   force =     0.00000000    0.15580722    0.36616566
     atom    4 type  1   force =     0.00000000    0.15580722   -0.36616566
     atom    5 type  2   force =     0.00000000   -0.97048286    2.28314807
     atom    6 type  2   force =    -0.00000000   -0.97048286   -2.28314807
     atom    7 type  2   force =    -0.00000000    0.97048286    2.28314807
     atom    8 type  2   force =     0.00000000    0.97048286   -2.28314807
     The ionic contribution  to forces
     atom    1 type  1   force =     0.00000000    0.91439883    2.68704709
     atom    2 type  1   force =     0.00000000    0.91439883   -2.68704709
     atom    3 type  1   force =    -0.00000000   -0.91439883    2.68704709
     atom    4 type  1   force =    -0.00000000   -0.91439883   -2.68704709
     atom    5 type  2   force =     0.00000000    4.28250416  -44.49509369
     atom    6 type  2   force =    -0.00000000    4.28250416   44.49509369
     atom    7 type  2   force =     0.00000000   -4.28250416  -44.49509369
     atom    8 type  2   force =     0.00000000   -4.28250416   44.49509369
     The local contribution  to forces
     atom    1 type  1   force =     0.00000000   -0.75831185   -3.05087485
     atom    2 type  1   force =     0.00000000   -0.75831185    3.05087485
     atom    3 type  1   force =    -0.00000000    0.75831185   -3.05087485
     atom    4 type  1   force =    -0.00000000    0.75831185    3.05087485
     atom    5 type  2   force =     0.00000000   -3.31213280   42.21197109
     atom    6 type  2   force =     0.00000000   -3.31213280  -42.21197109
     atom    7 type  2   force =     0.00000000    3.31213280   42.21197109
     atom    8 type  2   force =     0.00000000    3.31213280  -42.21197109
     The core correction contribution to forces
     atom    1 type  1   force =    -0.00000000    0.00091559   -0.00265628
     atom    2 type  1   force =    -0.00000000    0.00091559    0.00265628
     atom    3 type  1   force =     0.00000000   -0.00091559   -0.00265628
     atom    4 type  1   force =     0.00000000   -0.00091559    0.00265628
     atom    5 type  2   force =     0.00000000    0.00000000    0.00000000
     atom    6 type  2   force =     0.00000000    0.00000000    0.00000000
     atom    7 type  2   force =     0.00000000    0.00000000    0.00000000
     atom    8 type  2   force =     0.00000000    0.00000000    0.00000000
     The Hubbard contrib.    to forces
     atom    1 type  1   force =     0.00000000    0.00000000    0.00000000
     atom    2 type  1   force =     0.00000000    0.00000000    0.00000000
     atom    3 type  1   force =     0.00000000    0.00000000    0.00000000
     atom    4 type  1   force =     0.00000000    0.00000000    0.00000000
     atom    5 type  2   force =     0.00000000    0.00000000    0.00000000
     atom    6 type  2   force =     0.00000000    0.00000000    0.00000000
     atom    7 type  2   force =     0.00000000    0.00000000    0.00000000
     atom    8 type  2   force =     0.00000000    0.00000000    0.00000000
     The SCF correction term to forces
     atom    1 type  1   force =    -0.00000000   -0.00000308    0.00002270
     atom    2 type  1   force =    -0.00000000   -0.00000308   -0.00002270
     atom    3 type  1   force =    -0.00000000    0.00000308    0.00002270
     atom    4 type  1   force =    -0.00000000    0.00000308   -0.00002270
     atom    5 type  2   force =    -0.00000000    0.00002477   -0.00010068
     atom    6 type  2   force =     0.00000000    0.00002477    0.00010068
     atom    7 type  2   force =    -0.00000000   -0.00002477   -0.00010068
     atom    8 type  2   force =    -0.00000000   -0.00002477    0.00010068

     Total force =     0.002467     Total SCF correction =     0.000212


     Computing stress (Cartesian axis) and pressure


     negative rho (up, down):  1.338E-06 0.000E+00
          total   stress  (Ry/bohr**3)                   (kbar)     P=        0.15
   0.00000806   0.00000000   0.00000000            1.19        0.00        0.00
   0.00000000  -0.00000444   0.00000000            0.00       -0.65        0.00
   0.00000000   0.00000000  -0.00000056            0.00        0.00       -0.08

     kinetic stress (kbar)   9140.53      0.00      0.00
                                0.00   8956.82      0.00
                                0.00      0.00   8301.67

     local   stress (kbar)-161111.13     -0.00     -0.00
                               -0.00-162211.66     -0.00
                               -0.00     -0.00 155410.42

     nonloc. stress (kbar)   1179.96      0.00      0.00
                                0.00   1136.16      0.00
                                0.00      0.00    962.93

     hartree stress (kbar)  80821.08     -0.00      0.00
                               -0.00  81109.36      0.00
                                0.00      0.00 -74840.71

     exc-cor stress (kbar)  -2141.88     -0.00      0.00
                               -0.00  -2137.90      0.00
                                0.00      0.00  -2131.21

     corecor stress (kbar)    -73.68      0.00     -0.00
                                0.00    -73.47      0.00
                               -0.00      0.00    -72.52

     ewald   stress (kbar)  72186.31      0.00      0.00
                                0.00  73220.06      0.00
                                0.00      0.00 -87630.66

     hubbard stress (kbar)      0.00      0.00      0.00
                                0.00      0.00      0.00
                                0.00      0.00      0.00

     DFT-D   stress (kbar)      0.00      0.00      0.00
                                0.00      0.00      0.00
                                0.00      0.00      0.00

     XDM     stress (kbar)      0.00      0.00      0.00
                                0.00      0.00      0.00
                                0.00      0.00      0.00

     dft-nl  stress (kbar)      0.00      0.00      0.00
                                0.00      0.00      0.00
                                0.00      0.00      0.00

     TS-vdW  stress (kbar)      0.00      0.00      0.00
                                0.00      0.00      0.00
                                0.00      0.00      0.00

     MDB     stress (kbar)      0.00      0.00      0.00
                                0.00      0.00      0.00
                                0.00      0.00      0.00

     3D-RISM stress (kbar)      0.00      0.00      0.00
                                0.00      0.00      0.00
                                0.00      0.00      0.00


     Writing all to output data dir ../tmp/fgz.save/

     init_run     :     12.08s CPU     18.64s WALL (       1 calls)
     electrons    :    464.51s CPU    692.23s WALL (       1 calls)
     forces       :      8.28s CPU     15.06s WALL (       1 calls)
     stress       :      9.33s CPU     15.47s WALL (       1 calls)

     Called by init_run:
     wfcinit      :      9.89s CPU     16.16s WALL (       1 calls)
     wfcinit:atom :      0.02s CPU      0.01s WALL (       9 calls)
     wfcinit:wfcr :      9.31s CPU     15.54s WALL (       9 calls)
     potinit      :      0.33s CPU      0.34s WALL (       1 calls)
     hinit0       :      0.86s CPU      0.87s WALL (       1 calls)

     Called by electrons:
     c_bands      :    436.75s CPU    642.88s WALL (      10 calls)
     sum_band     :     23.72s CPU     43.58s WALL (      10 calls)
     v_of_rho     :      0.81s CPU      0.81s WALL (      11 calls)
     v_h          :      0.05s CPU      0.05s WALL (      11 calls)
     v_xc         :      0.87s CPU      0.88s WALL (      13 calls)
     newd         :      2.82s CPU      4.30s WALL (      11 calls)
     mix_rho      :      0.25s CPU      0.25s WALL (      10 calls)

     Called by c_bands:
     init_us_2    :      0.37s CPU      0.61s WALL (     207 calls)
     init_us_2:cp :      0.36s CPU      0.61s WALL (     207 calls)
     cegterg      :    422.15s CPU    619.66s WALL (      90 calls)

     Called by sum_band:
     sum_band:wei :      0.00s CPU      0.00s WALL (      10 calls)
     sum_band:loo :     20.35s CPU     37.14s WALL (      10 calls)
     sum_band:buf :      0.04s CPU      0.09s WALL (      90 calls)
     sum_band:ini :      0.12s CPU      0.19s WALL (      90 calls)
     sum_band:cal :     15.97s CPU     30.88s WALL (      90 calls)
     sum_band:bec :      0.00s CPU      0.00s WALL (      90 calls)
     addusdens    :      2.29s CPU      5.02s WALL (      10 calls)
     addusd:skk   :      0.01s CPU      0.02s WALL (      20 calls)
     addusd:dgemm :      1.30s CPU      3.16s WALL (      20 calls)
     addusd:qvan2 :      0.94s CPU      1.80s WALL (      20 calls)

     Called by *egterg:
     cdiaghg      :     44.75s CPU     21.26s WALL (     382 calls)
     cegterg:over :    109.54s CPU    164.56s WALL (     292 calls)
     cegterg:upda :     18.79s CPU     30.08s WALL (     292 calls)
     cegterg:last :     22.46s CPU     35.68s WALL (     206 calls)
     h_psi        :    134.33s CPU    234.29s WALL (     391 calls)
     s_psi        :      6.80s CPU     13.36s WALL (     391 calls)
     g_psi        :      0.16s CPU      0.11s WALL (     292 calls)

     Called by h_psi:
     h_psi:calbec :     73.73s CPU    138.87s WALL (     391 calls)
     vloc_psi     :     33.86s CPU     36.06s WALL (     391 calls)
     add_vuspsi   :     26.59s CPU     59.09s WALL (     391 calls)

     General routines
     calbec       :     99.91s CPU    187.14s WALL (     526 calls)
     fft          :      1.20s CPU      1.19s WALL (     146 calls)
     ffts         :      0.03s CPU      0.04s WALL (      10 calls)
     fftw         :     36.26s CPU     38.70s WALL (   15466 calls)

     Parallel routines

     PWSCF        :   8m15.08s CPU  12m28.17s WALL


   This run was terminated on:   3:30:13  20Jan2024            

=------------------------------------------------------------------------------=
   JOB DONE.
=------------------------------------------------------------------------------=
