
     Program PWSCF v.7.1 starts on 20Jan2024 at  3:30:17 

     This program is part of the open-source Quantum ESPRESSO suite
     for quantum simulation of materials; please cite
         "P. Giannozzi et al., J. Phys.:Condens. Matter 21 395502 (2009);
         "P. Giannozzi et al., J. Phys.:Condens. Matter 29 465901 (2017);
         "P. Giannozzi et al., J. Chem. Phys. 152 154105 (2020);
          URL http://www.quantum-espresso.org", 
     in publications or presentations arising from this work. More details at
     http://www.quantum-espresso.org/quote

     Parallel version (MPI), running on    50 processors

     MPI processes distributed on     1 nodes
     349932 MiB available memory on the printing compute node when the environment starts

     Reading input from kpoint.6.in

     Current dimensions of program PWSCF are:
     Max number of different atomic species (ntypx) = 10
     Max number of k-points (npk) =  40000
     Max angular momentum in pseudopotentials (lmaxx) =  4
     Message from routine setup:
     using ibrav=0 with symmetry is DISCOURAGED, use correct ibrav instead

     R & G space division:  proc/nbgrp/npool/nimage =      50
     Subspace diagonalization in iterative solution of the eigenvalue problem:
     a serial algorithm will be used


     Parallelization info
     --------------------
     sticks:   dense  smooth     PW     G-vecs:    dense   smooth      PW
     Min         175     175     46                54253    54253    7366
     Max         176     176     47                54271    54271    7387
     Sum        8763    8763   2323              2713169  2713169  368693

     Using Slab Decomposition



     bravais-lattice index     =            0
     lattice parameter (alat)  =       4.9702  a.u.
     unit-cell volume          =    1084.4437 (a.u.)^3
     number of atoms/cell      =            8
     number of atomic types    =            2
     number of electrons       =        44.00
     number of Kohn-Sham states=           26
     kinetic-energy cutoff     =     700.0000  Ry
     charge density cutoff     =    2800.0000  Ry
     scf convergence threshold =      1.0E-08
     mixing beta               =       0.7000
     number of iterations used =            8  plain     mixing
     Exchange-correlation=  SLA  PW   PBX  PBC
                           (   1   4   3   4   0   0   0)

     celldm(1)=   4.970237  celldm(2)=   0.000000  celldm(3)=   0.000000
     celldm(4)=   0.000000  celldm(5)=   0.000000  celldm(6)=   0.000000

     crystal axes: (cart. coord. in units of alat)
               a(1) = (   1.000000   0.000000   0.000000 )  
               a(2) = (   0.000000   1.594189   0.000000 )  
               a(3) = (   0.000000   0.000000   5.540333 )  

     reciprocal axes: (cart. coord. in units 2 pi/alat)
               b(1) = (  1.000000  0.000000  0.000000 )  
               b(2) = (  0.000000  0.627278  0.000000 )  
               b(3) = (  0.000000  0.000000  0.180495 )  


     PseudoPot. # 1 for C  read from file:
     ../pseudo/c_pbe_v1.2.uspp.F.UPF
     MD5 check sum: d1aef80898a10debaa0f26306b886e00
     Pseudo is Ultrasoft + core correction, Zval =  4.0
     Generated by new atomic code, or converted to UPF format
     Using radial grid of  721 points,  4 beta functions with: 
                l(1) =   0
                l(2) =   0
                l(3) =   1
                l(4) =   1
     Q(r) pseudized with  8 coefficients,  rinner =    1.100   1.100   1.100


     PseudoPot. # 2 for F  read from file:
     ../pseudo/f_pbe_v1.4.uspp.F.UPF
     MD5 check sum: 4c38b6a325caf53ec0e86aed9459de46
     Pseudo is Ultrasoft, Zval =  7.0
     Generated by new atomic code, or converted to UPF format
     Using radial grid of  799 points,  4 beta functions with: 
                l(1) =   0
                l(2) =   0
                l(3) =   1
                l(4) =   1
     Q(r) pseudized with  8 coefficients,  rinner =    0.950   0.950   0.950


     atomic species   valence    mass     pseudopotential
        C              4.00    12.01070     C ( 1.00)
        F              7.00    18.99840     F ( 1.00)

      8 Sym. Ops., with inversion, found ( 4 have fractional translation)


                                    s                        frac. trans.

      isym =  1     identity                                     

 cryst.   s( 1) = (     1          0          0      )
                  (     0          1          0      )
                  (     0          0          1      )

 cart.    s( 1) = (  1.0000000  0.0000000  0.0000000 )
                  (  0.0000000  1.0000000  0.0000000 )
                  (  0.0000000  0.0000000  1.0000000 )


      isym =  2     180 deg rotation - cart. axis [0,0,1]        

 cryst.   s( 2) = (    -1          0          0      )    f =(  0.5000000 )
                  (     0         -1          0      )       (  0.5000000 )
                  (     0          0          1      )       (  0.0000000 )

 cart.    s( 2) = ( -1.0000000  0.0000000  0.0000000 )    f =(  0.5000000 )
                  (  0.0000000 -1.0000000  0.0000000 )       (  0.7970945 )
                  (  0.0000000  0.0000000  1.0000000 )       (  0.0000000 )


      isym =  3     180 deg rotation - cart. axis [0,1,0]        

 cryst.   s( 3) = (    -1          0          0      )    f =(  0.5000000 )
                  (     0          1          0      )       ( -0.5000000 )
                  (     0          0         -1      )       (  0.0000000 )

 cart.    s( 3) = ( -1.0000000  0.0000000  0.0000000 )    f =(  0.5000000 )
                  (  0.0000000  1.0000000  0.0000000 )       ( -0.7970945 )
                  (  0.0000000  0.0000000 -1.0000000 )       (  0.0000000 )


      isym =  4     180 deg rotation - cart. axis [1,0,0]        

 cryst.   s( 4) = (     1          0          0      )
                  (     0         -1          0      )
                  (     0          0         -1      )

 cart.    s( 4) = (  1.0000000  0.0000000  0.0000000 )
                  (  0.0000000 -1.0000000  0.0000000 )
                  (  0.0000000  0.0000000 -1.0000000 )


      isym =  5     inversion                                    

 cryst.   s( 5) = (    -1          0          0      )
                  (     0         -1          0      )
                  (     0          0         -1      )

 cart.    s( 5) = ( -1.0000000  0.0000000  0.0000000 )
                  (  0.0000000 -1.0000000  0.0000000 )
                  (  0.0000000  0.0000000 -1.0000000 )


      isym =  6     inv. 180 deg rotation - cart. axis [0,0,1]   

 cryst.   s( 6) = (     1          0          0      )    f =(  0.5000000 )
                  (     0          1          0      )       ( -0.5000000 )
                  (     0          0         -1      )       (  0.0000000 )

 cart.    s( 6) = (  1.0000000  0.0000000  0.0000000 )    f =(  0.5000000 )
                  (  0.0000000  1.0000000  0.0000000 )       ( -0.7970945 )
                  (  0.0000000  0.0000000 -1.0000000 )       (  0.0000000 )


      isym =  7     inv. 180 deg rotation - cart. axis [0,1,0]   

 cryst.   s( 7) = (     1          0          0      )    f =(  0.5000000 )
                  (     0         -1          0      )       (  0.5000000 )
                  (     0          0          1      )       (  0.0000000 )

 cart.    s( 7) = (  1.0000000  0.0000000  0.0000000 )    f =(  0.5000000 )
                  (  0.0000000 -1.0000000  0.0000000 )       (  0.7970945 )
                  (  0.0000000  0.0000000  1.0000000 )       (  0.0000000 )


      isym =  8     inv. 180 deg rotation - cart. axis [1,0,0]   

 cryst.   s( 8) = (    -1          0          0      )
                  (     0          1          0      )
                  (     0          0          1      )

 cart.    s( 8) = ( -1.0000000  0.0000000  0.0000000 )
                  (  0.0000000  1.0000000  0.0000000 )
                  (  0.0000000  0.0000000  1.0000000 )


   Cartesian axes

     site n.     atom                  positions (alat units)
         1           C   tau(   1) = (   0.5000000   0.2256478   0.1937169  )
         2           C   tau(   2) = (   0.0000000   1.0227422  -0.1937169  )
         3           C   tau(   3) = (   0.0000000   0.5714467   0.1937169  )
         4           C   tau(   4) = (   0.5000000   1.3685411  -0.1937169  )
         5           F   tau(   5) = (   0.5000000  -0.0095812  -0.6719762  )
         6           F   tau(   6) = (   0.0000000   0.7875132   0.6719762  )
         7           F   tau(   7) = (   0.0000000   0.8066757  -0.6719762  )
         8           F   tau(   8) = (   0.5000000   0.0095812   0.6719762  )

   Crystallographic axes

     site n.     atom                  positions (cryst. coord.)
         1           C   tau(   1) = (  0.5000000  0.1415439  0.0349649  )
         2           C   tau(   2) = (  0.0000000  0.6415439 -0.0349649  )
         3           C   tau(   3) = (  0.0000000  0.3584561  0.0349649  )
         4           C   tau(   4) = (  0.5000000  0.8584561 -0.0349649  )
         5           F   tau(   5) = (  0.5000000 -0.0060101 -0.1212881  )
         6           F   tau(   6) = (  0.0000000  0.4939899  0.1212881  )
         7           F   tau(   7) = (  0.0000000  0.5060101 -0.1212881  )
         8           F   tau(   8) = (  0.5000000  0.0060101  0.1212881  )

     number of k points=    16  Marzari-Vanderbilt smearing, width (Ry)=  0.0200
                       cart. coord. in units 2pi/alat
        k(    1) = (   0.0000000   0.0000000   0.0000000), wk =   0.0555556
        k(    2) = (   0.0000000   0.1045464   0.0000000), wk =   0.1111111
        k(    3) = (   0.0000000   0.2090927   0.0000000), wk =   0.1111111
        k(    4) = (   0.0000000  -0.3136391   0.0000000), wk =   0.0555556
        k(    5) = (   0.1666667   0.0000000   0.0000000), wk =   0.1111111
        k(    6) = (   0.1666667   0.1045464   0.0000000), wk =   0.2222222
        k(    7) = (   0.1666667   0.2090927   0.0000000), wk =   0.2222222
        k(    8) = (   0.1666667  -0.3136391   0.0000000), wk =   0.1111111
        k(    9) = (   0.3333333   0.0000000   0.0000000), wk =   0.1111111
        k(   10) = (   0.3333333   0.1045464   0.0000000), wk =   0.2222222
        k(   11) = (   0.3333333   0.2090927   0.0000000), wk =   0.2222222
        k(   12) = (   0.3333333  -0.3136391   0.0000000), wk =   0.1111111
        k(   13) = (  -0.5000000   0.0000000   0.0000000), wk =   0.0555556
        k(   14) = (  -0.5000000   0.1045464   0.0000000), wk =   0.1111111
        k(   15) = (  -0.5000000   0.2090927   0.0000000), wk =   0.1111111
        k(   16) = (  -0.5000000  -0.3136391   0.0000000), wk =   0.0555556

                       cryst. coord.
        k(    1) = (   0.0000000   0.0000000   0.0000000), wk =   0.0555556
        k(    2) = (   0.0000000   0.1666667   0.0000000), wk =   0.1111111
        k(    3) = (   0.0000000   0.3333333   0.0000000), wk =   0.1111111
        k(    4) = (   0.0000000  -0.5000000   0.0000000), wk =   0.0555556
        k(    5) = (   0.1666667   0.0000000   0.0000000), wk =   0.1111111
        k(    6) = (   0.1666667   0.1666667   0.0000000), wk =   0.2222222
        k(    7) = (   0.1666667   0.3333333   0.0000000), wk =   0.2222222
        k(    8) = (   0.1666667  -0.5000000   0.0000000), wk =   0.1111111
        k(    9) = (   0.3333333   0.0000000   0.0000000), wk =   0.1111111
        k(   10) = (   0.3333333   0.1666667   0.0000000), wk =   0.2222222
        k(   11) = (   0.3333333   0.3333333   0.0000000), wk =   0.2222222
        k(   12) = (   0.3333333  -0.5000000   0.0000000), wk =   0.1111111
        k(   13) = (  -0.5000000   0.0000000   0.0000000), wk =   0.0555556
        k(   14) = (  -0.5000000   0.1666667   0.0000000), wk =   0.1111111
        k(   15) = (  -0.5000000   0.3333333   0.0000000), wk =   0.1111111
        k(   16) = (  -0.5000000  -0.5000000   0.0000000), wk =   0.0555556

     Dense  grid:  2713169 G-vectors     FFT dimensions: (  90, 144, 480)

     Dynamical RAM for                 wfc:       2.69 MB

     Dynamical RAM for     wfc (w. buffer):      45.75 MB

     Dynamical RAM for           str. fact:       1.66 MB

     Dynamical RAM for           local pot:       0.00 MB

     Dynamical RAM for          nlocal pot:       6.62 MB

     Dynamical RAM for                qrad:       2.42 MB

     Dynamical RAM for          rho,v,vnew:       5.45 MB

     Dynamical RAM for               rhoin:       1.82 MB

     Dynamical RAM for            rho*nmix:      13.25 MB

     Dynamical RAM for           G-vectors:       3.52 MB

     Dynamical RAM for          h,s,v(r/c):       0.12 MB

     Dynamical RAM for          <psi|beta>:       0.03 MB

     Dynamical RAM for                 psi:       5.38 MB

     Dynamical RAM for                hpsi:       5.38 MB

     Dynamical RAM for                spsi:       5.38 MB

     Dynamical RAM for      wfcinit/wfcrot:       6.65 MB

     Dynamical RAM for           addusdens:      38.92 MB

     Dynamical RAM for          addusforce:      44.30 MB

     Dynamical RAM for         addusstress:      41.40 MB

     Estimated static dynamical RAM per process >      74.67 MB

     Estimated max dynamical RAM per process >     132.22 MB

     Estimated total dynamical RAM >       6.46 GB

     Initial potential from superposition of free atoms

     starting charge      43.9998, renormalised to      44.0000

     negative rho (up, down):  6.060E-03 0.000E+00
     Starting wfcs are   32 randomized atomic wfcs

     total cpu time spent up to now is       30.0 secs

     Self-consistent Calculation

     iteration #  1     ecut=   700.00 Ry     beta= 0.70
     Davidson diagonalization with overlap

---- Real-time Memory Report at c_bands before calling an iterative solver
           117 MiB given to the printing process from OS
             0 MiB allocation reported by mallinfo(arena+hblkhd)
        345539 MiB available memory on the node where the printing process lives
------------------
     ethr =  1.00E-02,  avg # of iterations =  3.6

     negative rho (up, down):  1.633E-03 0.000E+00

     total cpu time spent up to now is      164.2 secs

     total energy              =    -240.10934285 Ry
     estimated scf accuracy    <       0.44466199 Ry

     iteration #  2     ecut=   700.00 Ry     beta= 0.70
     Davidson diagonalization with overlap

---- Real-time Memory Report at c_bands before calling an iterative solver
           160 MiB given to the printing process from OS
             0 MiB allocation reported by mallinfo(arena+hblkhd)
        343233 MiB available memory on the node where the printing process lives
------------------
     ethr =  1.01E-03,  avg # of iterations =  3.6

     negative rho (up, down):  1.012E-03 0.000E+00

     total cpu time spent up to now is      299.8 secs

     total energy              =    -240.13016910 Ry
     estimated scf accuracy    <       0.43946186 Ry

     iteration #  3     ecut=   700.00 Ry     beta= 0.70
     Davidson diagonalization with overlap

---- Real-time Memory Report at c_bands before calling an iterative solver
           165 MiB given to the printing process from OS
             0 MiB allocation reported by mallinfo(arena+hblkhd)
        343153 MiB available memory on the node where the printing process lives
------------------
     ethr =  9.99E-04,  avg # of iterations =  2.6

     negative rho (up, down):  1.857E-04 0.000E+00

     total cpu time spent up to now is      404.8 secs

     total energy              =    -240.24448713 Ry
     estimated scf accuracy    <       0.02153438 Ry

     iteration #  4     ecut=   700.00 Ry     beta= 0.70
     Davidson diagonalization with overlap

---- Real-time Memory Report at c_bands before calling an iterative solver
           167 MiB given to the printing process from OS
             0 MiB allocation reported by mallinfo(arena+hblkhd)
        343051 MiB available memory on the node where the printing process lives
------------------
     ethr =  4.89E-05,  avg # of iterations =  4.2

     negative rho (up, down):  3.185E-05 0.000E+00

     total cpu time spent up to now is      544.3 secs

     total energy              =    -240.24689450 Ry
     estimated scf accuracy    <       0.00157637 Ry

     iteration #  5     ecut=   700.00 Ry     beta= 0.70
     Davidson diagonalization with overlap

---- Real-time Memory Report at c_bands before calling an iterative solver
           169 MiB given to the printing process from OS
             0 MiB allocation reported by mallinfo(arena+hblkhd)
        342984 MiB available memory on the node where the printing process lives
------------------
     ethr =  3.58E-06,  avg # of iterations =  5.6

     negative rho (up, down):  1.273E-06 0.000E+00

     total cpu time spent up to now is      725.1 secs

     total energy              =    -240.24723998 Ry
     estimated scf accuracy    <       0.00001786 Ry

     iteration #  6     ecut=   700.00 Ry     beta= 0.70
     Davidson diagonalization with overlap

---- Real-time Memory Report at c_bands before calling an iterative solver
           170 MiB given to the printing process from OS
             0 MiB allocation reported by mallinfo(arena+hblkhd)
        342888 MiB available memory on the node where the printing process lives
------------------
     ethr =  4.06E-08,  avg # of iterations =  4.2

     negative rho (up, down):  1.345E-06 0.000E+00

     total cpu time spent up to now is      871.5 secs

     total energy              =    -240.24724799 Ry
     estimated scf accuracy    <       0.00001557 Ry

     iteration #  7     ecut=   700.00 Ry     beta= 0.70
     Davidson diagonalization with overlap

---- Real-time Memory Report at c_bands before calling an iterative solver
           172 MiB given to the printing process from OS
             0 MiB allocation reported by mallinfo(arena+hblkhd)
        342802 MiB available memory on the node where the printing process lives
------------------
     ethr =  3.54E-08,  avg # of iterations =  1.9

     negative rho (up, down):  1.350E-06 0.000E+00

     total cpu time spent up to now is      958.0 secs

     total energy              =    -240.24724906 Ry
     estimated scf accuracy    <       0.00000111 Ry

     iteration #  8     ecut=   700.00 Ry     beta= 0.70
     Davidson diagonalization with overlap

---- Real-time Memory Report at c_bands before calling an iterative solver
           173 MiB given to the printing process from OS
             0 MiB allocation reported by mallinfo(arena+hblkhd)
        342713 MiB available memory on the node where the printing process lives
------------------
     ethr =  2.51E-09,  avg # of iterations =  3.3

     negative rho (up, down):  1.351E-06 0.000E+00

     total cpu time spent up to now is     1080.5 secs

     total energy              =    -240.24724952 Ry
     estimated scf accuracy    <       0.00000041 Ry

     iteration #  9     ecut=   700.00 Ry     beta= 0.70
     Davidson diagonalization with overlap

---- Real-time Memory Report at c_bands before calling an iterative solver
           175 MiB given to the printing process from OS
             0 MiB allocation reported by mallinfo(arena+hblkhd)
        342637 MiB available memory on the node where the printing process lives
------------------
     ethr =  9.41E-10,  avg # of iterations =  2.0

     negative rho (up, down):  1.335E-06 0.000E+00

     total cpu time spent up to now is     1169.8 secs

     End of self-consistent calculation

          k = 0.0000 0.0000 0.0000 (339089 PWs)   bands (ev):

   -28.1832 -27.9020 -26.6493 -26.5317 -18.8094 -15.5399 -13.5836 -11.1229
   -10.3487  -9.9806  -8.6991  -8.2804  -7.6840  -7.5566  -7.3227  -5.4479
    -5.3044  -5.2489  -4.5965  -4.2723  -4.0435  -2.7235   0.8197   3.2721
     3.3857   4.4172

     occupation numbers 
     1.0000   1.0000   1.0000   1.0000   1.0000   1.0000   1.0000   1.0000
     1.0000   1.0000   1.0000   1.0000   1.0000   1.0000   1.0000   1.0000
     1.0000   1.0000   1.0000   1.0000   1.0000   1.0000   0.0000   0.0000
     0.0000   0.0000

          k = 0.0000 0.1045 0.0000 (339011 PWs)   bands (ev):

   -28.1170 -27.8550 -26.7267 -26.6057 -18.6731 -15.9914 -13.2098 -11.0586
   -10.1046 -10.0378  -8.5898  -8.3130  -7.8862  -7.3590  -7.3535  -5.5458
    -5.5080  -5.3795  -4.7172  -4.2279  -3.9569  -2.8367   1.1295   3.3296
     3.3696   4.8217

     occupation numbers 
     1.0000   1.0000   1.0000   1.0000   1.0000   1.0000   1.0000   1.0000
     1.0000   1.0000   1.0000   1.0000   1.0000   1.0000   1.0000   1.0000
     1.0000   1.0000   1.0000   1.0000   1.0000   1.0000   0.0000   0.0000
     0.0000   0.0000

          k = 0.0000 0.2091 0.0000 (338975 PWs)   bands (ev):

   -27.9445 -27.7577 -26.8918 -26.7858 -18.2729 -16.8302 -12.5126 -11.2090
    -9.8636  -9.5570  -8.4675  -8.4102  -8.2872  -7.5276  -6.8618  -5.9606
    -5.6995  -5.5491  -4.8690  -4.3653  -3.7331  -3.1084   1.8843   3.2352
     3.4994   4.3680

     occupation numbers 
     1.0000   1.0000   1.0000   1.0000   1.0000   1.0000   1.0000   1.0000
     1.0000   1.0000   1.0000   1.0000   1.0000   1.0000   1.0000   1.0000
     1.0000   1.0000   1.0000   1.0000   1.0000   1.0000   0.0000   0.0000
     0.0000   0.0000

          k = 0.0000-0.3136 0.0000 (338886 PWs)   bands (ev):

   -27.7677 -27.7677 -26.9409 -26.9409 -17.6382 -17.6382 -11.7875 -11.7875
    -9.3267  -9.3267  -8.7747  -8.7747  -7.8794  -7.8794  -6.3692  -6.3692
    -5.6975  -5.6975  -4.7159  -4.7159  -3.4315  -3.4315   2.7279   2.7279
     3.8082   3.8082

     occupation numbers 
     1.0000   1.0000   1.0000   1.0000   1.0000   1.0000   1.0000   1.0000
     1.0000   1.0000   1.0000   1.0000   1.0000   1.0000   1.0000   1.0000
     1.0000   1.0000   1.0000   1.0000   1.0000   1.0000   0.0000   0.0000
     0.0000   0.0000

          k = 0.1667 0.0000 0.0000 (339176 PWs)   bands (ev):

   -27.9983 -27.7393 -26.6491 -26.5357 -18.4643 -15.2055 -13.4678 -10.8516
   -10.1858 -10.0564 -10.0536  -8.5369  -8.2632  -7.6595  -7.3469  -6.0242
    -5.8912  -5.4388  -4.9183  -4.5707  -4.1923  -3.7627   1.3234   3.8938
     4.8917   5.5358

     occupation numbers 
     1.0000   1.0000   1.0000   1.0000   1.0000   1.0000   1.0000   1.0000
     1.0000   1.0000   1.0000   1.0000   1.0000   1.0000   1.0000   1.0000
     1.0000   1.0000   1.0000   1.0000   1.0000   1.0000   0.0000   0.0000
     0.0000   0.0000

          k = 0.1667 0.1045 0.0000 (339167 PWs)   bands (ev):

   -27.9383 -27.6971 -26.7147 -26.5992 -18.3309 -15.6746 -13.0937 -10.8526
   -10.1947 -10.1262  -9.7228  -8.6845  -8.2124  -7.8709  -7.1822  -6.0810
    -5.9114  -5.3846  -4.8608  -4.5642  -4.2831  -3.9067   1.5611   4.2537
     4.8581   5.5945

     occupation numbers 
     1.0000   1.0000   1.0000   1.0000   1.0000   1.0000   1.0000   1.0000
     1.0000   1.0000   1.0000   1.0000   1.0000   1.0000   1.0000   1.0000
     1.0000   1.0000   1.0000   1.0000   1.0000   1.0000   0.0000   0.0000
     0.0000   0.0000

          k = 0.1667 0.2091 0.0000 (339090 PWs)   bands (ev):

   -27.7823 -27.6106 -26.8545 -26.7552 -17.9388 -16.5166 -12.4370 -11.1378
   -10.0576 -10.0531  -9.1563  -8.9461  -8.2993  -8.1940  -6.7651  -6.0512
    -5.9161  -5.6207  -4.8782  -4.5721  -4.4088  -4.0547   2.2129   4.1691
     5.2311   5.5247

     occupation numbers 
     1.0000   1.0000   1.0000   1.0000   1.0000   1.0000   1.0000   1.0000
     1.0000   1.0000   1.0000   1.0000   1.0000   1.0000   1.0000   1.0000
     1.0000   1.0000   1.0000   1.0000   1.0000   1.0000   0.0000   0.0000
     0.0000   0.0000

          k = 0.1667-0.3136 0.0000 (339016 PWs)   bands (ev):

   -27.6221 -27.6221 -26.8926 -26.8926 -17.3152 -17.3152 -11.7501 -11.7501
    -9.9195  -9.9195  -9.0264  -9.0264  -8.3339  -8.3339  -6.2292  -6.2292
    -5.9005  -5.9005  -4.8552  -4.8552  -4.1825  -4.1825   3.1480   3.1480
     5.4228   5.4228

     occupation numbers 
     1.0000   1.0000   1.0000   1.0000   1.0000   1.0000   1.0000   1.0000
     1.0000   1.0000   1.0000   1.0000   1.0000   1.0000   1.0000   1.0000
     1.0000   1.0000   1.0000   1.0000   1.0000   1.0000   0.0000   0.0000
     0.0000   0.0000

          k = 0.3333 0.0000 0.0000 (339220 PWs)   bands (ev):

   -27.5347 -27.3321 -26.7298 -26.6163 -17.4465 -14.2392 -13.9469 -11.4986
   -10.9803 -10.2684  -9.8296  -9.3682  -9.3491  -8.0923  -7.0380  -6.5413
    -6.3830  -6.2863  -5.8600  -4.9901  -4.8381  -4.5839   2.3902   4.0396
     5.5446   6.9379

     occupation numbers 
     1.0000   1.0000   1.0000   1.0000   1.0000   1.0000   1.0000   1.0000
     1.0000   1.0000   1.0000   1.0000   1.0000   1.0000   1.0000   1.0000
     1.0000   1.0000   1.0000   1.0000   1.0000   1.0000   0.0000   0.0000
     0.0000   0.0000

          k = 0.3333 0.1045 0.0000 (339214 PWs)   bands (ev):

   -27.4945 -27.3060 -26.7629 -26.6517 -17.3227 -14.7991 -13.6404 -11.3504
   -11.2919 -10.3410  -9.6900  -9.5871  -8.9072  -8.2859  -6.8945  -6.6140
    -6.3771  -6.0236  -5.6256  -5.2778  -4.7743  -4.5258   2.5317   4.2541
     5.4299   6.5330

     occupation numbers 
     1.0000   1.0000   1.0000   1.0000   1.0000   1.0000   1.0000   1.0000
     1.0000   1.0000   1.0000   1.0000   1.0000   1.0000   1.0000   1.0000
     1.0000   1.0000   1.0000   1.0000   1.0000   1.0000   0.0000   0.0000
     0.0000   0.0000

          k = 0.3333 0.2091 0.0000 (339238 PWs)   bands (ev):

   -27.3905 -27.2569 -26.8304 -26.7417 -16.9575 -15.6165 -13.2547 -12.0564
   -10.9525 -10.5118  -9.6461  -9.5475  -8.5113  -8.4122  -6.7654  -6.4287
    -6.3773  -5.6599  -5.5962  -5.3482  -4.6557  -4.5995   2.9927   4.5321
     5.1448   5.8799

     occupation numbers 
     1.0000   1.0000   1.0000   1.0000   1.0000   1.0000   1.0000   1.0000
     1.0000   1.0000   1.0000   1.0000   1.0000   1.0000   1.0000   1.0000
     1.0000   1.0000   1.0000   1.0000   1.0000   1.0000   0.0000   0.0000
     0.0000   0.0000

          k = 0.3333-0.3136 0.0000 (339306 PWs)   bands (ev):

   -27.2794 -27.2794 -26.8315 -26.8315 -16.3727 -16.3727 -12.7308 -12.7308
   -10.6956 -10.6956  -9.6241  -9.6241  -8.3550  -8.3550  -6.5881  -6.5881
    -5.9980  -5.9980  -5.3544  -5.3544  -4.6203  -4.6203   3.7853   3.7853
     5.4433   5.4433

     occupation numbers 
     1.0000   1.0000   1.0000   1.0000   1.0000   1.0000   1.0000   1.0000
     1.0000   1.0000   1.0000   1.0000   1.0000   1.0000   1.0000   1.0000
     1.0000   1.0000   1.0000   1.0000   1.0000   1.0000   0.0000   0.0000
     0.0000   0.0000

          k =-0.5000 0.0000 0.0000 (339206 PWs)   bands (ev):

   -27.0331 -27.0331 -26.8903 -26.8903 -15.8167 -15.8167 -12.7501 -12.7501
   -10.9426 -10.9426  -9.5698  -9.5698  -8.9136  -8.9136  -7.0851  -7.0851
    -6.3105  -6.3105  -5.8507  -5.8507  -4.9392  -4.9392   3.7848   3.7848
     5.2724   5.2724

     occupation numbers 
     1.0000   1.0000   1.0000   1.0000   1.0000   1.0000   1.0000   1.0000
     1.0000   1.0000   1.0000   1.0000   1.0000   1.0000   1.0000   1.0000
     1.0000   1.0000   1.0000   1.0000   1.0000   1.0000   0.0000   0.0000
     0.0000   0.0000

          k =-0.5000 0.1045 0.0000 (339268 PWs)   bands (ev):

   -27.0293 -27.0293 -26.8883 -26.8883 -15.7169 -15.7169 -13.1730 -13.1730
   -10.7351 -10.7351  -9.7335  -9.7335  -8.7448  -8.7448  -6.8338  -6.8338
    -6.5190  -6.5190  -5.7474  -5.7474  -4.8052  -4.8052   3.8661   3.8661
     5.1415   5.1415

     occupation numbers 
     1.0000   1.0000   1.0000   1.0000   1.0000   1.0000   1.0000   1.0000
     1.0000   1.0000   1.0000   1.0000   1.0000   1.0000   1.0000   1.0000
     1.0000   1.0000   1.0000   1.0000   1.0000   1.0000   0.0000   0.0000
     0.0000   0.0000

          k =-0.5000 0.2091 0.0000 (339206 PWs)   bands (ev):

   -27.0217 -27.0217 -26.8845 -26.8845 -15.4392 -15.4392 -13.9041 -13.9041
   -10.5544 -10.5544  -9.9638  -9.9638  -8.4262  -8.4262  -6.8639  -6.8639
    -6.2360  -6.2360  -5.6035  -5.6035  -4.6823  -4.6823   4.0848   4.0848
     5.0342   5.0342

     occupation numbers 
     1.0000   1.0000   1.0000   1.0000   1.0000   1.0000   1.0000   1.0000
     1.0000   1.0000   1.0000   1.0000   1.0000   1.0000   1.0000   1.0000
     1.0000   1.0000   1.0000   1.0000   1.0000   1.0000   0.0000   0.0000
     0.0000   0.0000

          k =-0.5000-0.3136 0.0000 (339276 PWs)   bands (ev):

   -27.0179 -27.0179 -26.8826 -26.8826 -15.1914 -15.1914 -14.3311 -14.3311
   -10.5338 -10.5338 -10.0368 -10.0368  -8.2803  -8.2803  -6.9860  -6.9860
    -5.7718  -5.7718  -5.6915  -5.6915  -4.6850  -4.6850   4.1970   4.1970
     5.1422   5.1422

     occupation numbers 
     1.0000   1.0000   1.0000   1.0000   1.0000   1.0000   1.0000   1.0000
     1.0000   1.0000   1.0000   1.0000   1.0000   1.0000   1.0000   1.0000
     1.0000   1.0000   1.0000   1.0000   1.0000   1.0000   0.0000   0.0000
     0.0000   0.0000

     the Fermi energy is    -0.4818 ev

!    total energy              =    -240.24724958 Ry
     estimated scf accuracy    <          6.9E-09 Ry
     smearing contrib. (-TS)   =      -0.00000000 Ry
     internal energy E=F+TS    =    -240.24724958 Ry

     The total energy is F=E-TS. E is the sum of the following terms:
     one-electron contribution =   -1256.48127459 Ry
     hartree contribution      =     642.01096069 Ry
     xc contribution           =     -51.69360838 Ry
     ewald contribution        =     425.91667271 Ry

     convergence has been achieved in   9 iterations

     negative rho (up, down):  1.335E-06 0.000E+00

     Forces acting on atoms (cartesian axes, Ry/au):

     atom    1 type  1   force =     0.00000000    0.00010097   -0.00004442
     atom    2 type  1   force =     0.00000000    0.00010097    0.00004442
     atom    3 type  1   force =     0.00000000   -0.00010097   -0.00004442
     atom    4 type  1   force =     0.00000000   -0.00010097    0.00004442
     atom    5 type  2   force =     0.00000000   -0.00002460   -0.00003716
     atom    6 type  2   force =     0.00000000   -0.00002460    0.00003716
     atom    7 type  2   force =     0.00000000    0.00002460   -0.00003716
     atom    8 type  2   force =     0.00000000    0.00002460    0.00003716
     The non-local contrib.  to forces
     atom    1 type  1   force =    -0.00000000   -0.16155737    0.36773352
     atom    2 type  1   force =    -0.00000000   -0.16155737   -0.36773352
     atom    3 type  1   force =     0.00000000    0.16155737    0.36773352
     atom    4 type  1   force =     0.00000000    0.16155737   -0.36773352
     atom    5 type  2   force =     0.00000000   -0.97068657    2.28333320
     atom    6 type  2   force =     0.00000000   -0.97068657   -2.28333320
     atom    7 type  2   force =     0.00000000    0.97068657    2.28333320
     atom    8 type  2   force =     0.00000000    0.97068657   -2.28333320
     The ionic contribution  to forces
     atom    1 type  1   force =     0.00000000    0.91439883    2.68704709
     atom    2 type  1   force =     0.00000000    0.91439883   -2.68704709
     atom    3 type  1   force =    -0.00000000   -0.91439883    2.68704709
     atom    4 type  1   force =    -0.00000000   -0.91439883   -2.68704709
     atom    5 type  2   force =     0.00000000    4.28250416  -44.49509369
     atom    6 type  2   force =    -0.00000000    4.28250416   44.49509369
     atom    7 type  2   force =     0.00000000   -4.28250416  -44.49509369
     atom    8 type  2   force =     0.00000000   -4.28250416   44.49509369
     The local contribution  to forces
     atom    1 type  1   force =    -0.00000000   -0.75371470   -3.05210732
     atom    2 type  1   force =    -0.00000000   -0.75371470    3.05210732
     atom    3 type  1   force =     0.00000000    0.75371470   -3.05210732
     atom    4 type  1   force =     0.00000000    0.75371470    3.05210732
     atom    5 type  2   force =     0.00000000   -3.31179596   42.21154640
     atom    6 type  2   force =     0.00000000   -3.31179596  -42.21154640
     atom    7 type  2   force =     0.00000000    3.31179596   42.21154640
     atom    8 type  2   force =     0.00000000    3.31179596  -42.21154640
     The core correction contribution to forces
     atom    1 type  1   force =     0.00000000    0.00096709   -0.00267190
     atom    2 type  1   force =     0.00000000    0.00096709    0.00267190
     atom    3 type  1   force =    -0.00000000   -0.00096709   -0.00267190
     atom    4 type  1   force =    -0.00000000   -0.00096709    0.00267190
     atom    5 type  2   force =     0.00000000    0.00000000    0.00000000
     atom    6 type  2   force =     0.00000000    0.00000000    0.00000000
     atom    7 type  2   force =     0.00000000    0.00000000    0.00000000
     atom    8 type  2   force =     0.00000000    0.00000000    0.00000000
     The Hubbard contrib.    to forces
     atom    1 type  1   force =     0.00000000    0.00000000    0.00000000
     atom    2 type  1   force =     0.00000000    0.00000000    0.00000000
     atom    3 type  1   force =     0.00000000    0.00000000    0.00000000
     atom    4 type  1   force =     0.00000000    0.00000000    0.00000000
     atom    5 type  2   force =     0.00000000    0.00000000    0.00000000
     atom    6 type  2   force =     0.00000000    0.00000000    0.00000000
     atom    7 type  2   force =     0.00000000    0.00000000    0.00000000
     atom    8 type  2   force =     0.00000000    0.00000000    0.00000000
     The SCF correction term to forces
     atom    1 type  1   force =    -0.00000000    0.00000712   -0.00004580
     atom    2 type  1   force =    -0.00000000    0.00000712    0.00004580
     atom    3 type  1   force =    -0.00000000   -0.00000712   -0.00004580
     atom    4 type  1   force =    -0.00000000   -0.00000712    0.00004580
     atom    5 type  2   force =    -0.00000000   -0.00004623    0.00017693
     atom    6 type  2   force =    -0.00000000   -0.00004623   -0.00017693
     atom    7 type  2   force =    -0.00000000    0.00004623    0.00017693
     atom    8 type  2   force =    -0.00000000    0.00004623   -0.00017693

     Total force =     0.000238     Total SCF correction =     0.000377
     SCF correction compared to forces is large: reduce conv_thr to get better values


     Computing stress (Cartesian axis) and pressure


     negative rho (up, down):  1.335E-06 0.000E+00
          total   stress  (Ry/bohr**3)                   (kbar)     P=        0.02
   0.00000045   0.00000000   0.00000000            0.07        0.00        0.00
   0.00000000  -0.00000022   0.00000000            0.00       -0.03        0.00
   0.00000000   0.00000000   0.00000023            0.00        0.00        0.03

     kinetic stress (kbar)   9136.08      0.00      0.00
                                0.00   8958.35      0.00
                                0.00      0.00   8301.49

     local   stress (kbar)-161108.28      0.00      0.00
                                0.00-162213.81     -0.00
                                0.00     -0.00 155410.65

     nonloc. stress (kbar)   1180.25      0.00      0.00
                                0.00   1137.36      0.00
                                0.00      0.00    963.74

     hartree stress (kbar)  80821.14      0.00      0.00
                                0.00  81109.32      0.00
                                0.00      0.00 -74841.51

     exc-cor stress (kbar)  -2141.79     -0.00      0.00
                               -0.00  -2137.83      0.00
                                0.00      0.00  -2131.16

     corecor stress (kbar)    -73.65      0.00     -0.00
                                0.00    -73.48      0.00
                               -0.00      0.00    -72.52

     ewald   stress (kbar)  72186.31      0.00      0.00
                                0.00  73220.06      0.00
                                0.00      0.00 -87630.66

     hubbard stress (kbar)      0.00      0.00      0.00
                                0.00      0.00      0.00
                                0.00      0.00      0.00

     DFT-D   stress (kbar)      0.00      0.00      0.00
                                0.00      0.00      0.00
                                0.00      0.00      0.00

     XDM     stress (kbar)      0.00      0.00      0.00
                                0.00      0.00      0.00
                                0.00      0.00      0.00

     dft-nl  stress (kbar)      0.00      0.00      0.00
                                0.00      0.00      0.00
                                0.00      0.00      0.00

     TS-vdW  stress (kbar)      0.00      0.00      0.00
                                0.00      0.00      0.00
                                0.00      0.00      0.00

     MDB     stress (kbar)      0.00      0.00      0.00
                                0.00      0.00      0.00
                                0.00      0.00      0.00

     3D-RISM stress (kbar)      0.00      0.00      0.00
                                0.00      0.00      0.00
                                0.00      0.00      0.00


     Writing all to output data dir ../tmp/fgz.save/

     init_run     :     19.04s CPU     29.77s WALL (       1 calls)
     electrons    :    762.53s CPU   1140.50s WALL (       1 calls)
     forces       :     15.89s CPU     28.41s WALL (       1 calls)
     stress       :     14.53s CPU     25.88s WALL (       1 calls)

     Called by init_run:
     wfcinit      :     16.69s CPU     27.17s WALL (       1 calls)
     wfcinit:atom :      0.07s CPU      0.10s WALL (      16 calls)
     wfcinit:wfcr :     15.98s CPU     26.00s WALL (      16 calls)
     potinit      :      0.35s CPU      0.35s WALL (       1 calls)
     hinit0       :      0.96s CPU      0.96s WALL (       1 calls)

     Called by electrons:
     c_bands      :    722.38s CPU   1069.68s WALL (       9 calls)
     sum_band     :     36.79s CPU     65.67s WALL (       9 calls)
     v_of_rho     :      0.66s CPU      0.66s WALL (      10 calls)
     v_h          :      0.04s CPU      0.04s WALL (      10 calls)
     v_xc         :      0.73s CPU      0.73s WALL (      12 calls)
     newd         :      2.36s CPU      3.82s WALL (      10 calls)
     mix_rho      :      0.28s CPU      0.30s WALL (       9 calls)

     Called by c_bands:
     init_us_2    :      0.53s CPU      0.81s WALL (     336 calls)
     init_us_2:cp :      0.52s CPU      0.81s WALL (     336 calls)
     cegterg      :    697.55s CPU   1030.98s WALL (     144 calls)

     Called by sum_band:
     sum_band:wei :      0.00s CPU      0.00s WALL (       9 calls)
     sum_band:loo :     33.56s CPU     60.04s WALL (       9 calls)
     sum_band:buf :      0.06s CPU      0.14s WALL (     144 calls)
     sum_band:ini :      0.21s CPU      0.31s WALL (     144 calls)
     sum_band:cal :     26.83s CPU     51.24s WALL (     144 calls)
     sum_band:bec :      0.00s CPU      0.00s WALL (     144 calls)
     addusdens    :      2.11s CPU      4.47s WALL (       9 calls)
     addusd:skk   :      0.01s CPU      0.08s WALL (      18 calls)
     addusd:dgemm :      1.03s CPU      2.58s WALL (      18 calls)
     addusd:qvan2 :      1.04s CPU      1.76s WALL (      18 calls)

     Called by *egterg:
     cdiaghg      :     78.84s CPU     37.71s WALL (     642 calls)
     cegterg:over :    193.32s CPU    284.26s WALL (     498 calls)
     cegterg:upda :     34.44s CPU     53.70s WALL (     498 calls)
     cegterg:last :     35.22s CPU     54.80s WALL (     324 calls)
     h_psi        :    218.03s CPU    388.97s WALL (     658 calls)
     s_psi        :     10.57s CPU     19.48s WALL (     658 calls)
     g_psi        :      0.23s CPU      0.14s WALL (     498 calls)

     Called by h_psi:
     h_psi:calbec :    119.86s CPU    227.39s WALL (     658 calls)
     vloc_psi     :     53.94s CPU     57.48s WALL (     658 calls)
     add_vuspsi   :     44.01s CPU    103.78s WALL (     658 calls)

     General routines
     calbec       :    167.09s CPU    315.03s WALL (     882 calls)
     fft          :      1.17s CPU      1.19s WALL (     135 calls)
     ffts         :      0.08s CPU      0.09s WALL (       9 calls)
     fftw         :     57.43s CPU     61.11s WALL (   24828 calls)

     Parallel routines

     PWSCF        :  13m33.09s CPU  20m36.38s WALL


   This run was terminated on:   3:50:53  20Jan2024            

=------------------------------------------------------------------------------=
   JOB DONE.
=------------------------------------------------------------------------------=
