
     Program PWSCF v.7.1 starts on 20Jan2024 at  7: 5:56 

     This program is part of the open-source Quantum ESPRESSO suite
     for quantum simulation of materials; please cite
         "P. Giannozzi et al., J. Phys.:Condens. Matter 21 395502 (2009);
         "P. Giannozzi et al., J. Phys.:Condens. Matter 29 465901 (2017);
         "P. Giannozzi et al., J. Chem. Phys. 152 154105 (2020);
          URL http://www.quantum-espresso.org", 
     in publications or presentations arising from this work. More details at
     http://www.quantum-espresso.org/quote

     Parallel version (MPI), running on    50 processors

     MPI processes distributed on     1 nodes
     341553 MiB available memory on the printing compute node when the environment starts

     Reading input from kpoint.18.in

     Current dimensions of program PWSCF are:
     Max number of different atomic species (ntypx) = 10
     Max number of k-points (npk) =  40000
     Max angular momentum in pseudopotentials (lmaxx) =  4
     Message from routine setup:
     using ibrav=0 with symmetry is DISCOURAGED, use correct ibrav instead

     R & G space division:  proc/nbgrp/npool/nimage =      50
     Subspace diagonalization in iterative solution of the eigenvalue problem:
     a serial algorithm will be used


     Parallelization info
     --------------------
     sticks:   dense  smooth     PW     G-vecs:    dense   smooth      PW
     Min         175     175     46                54253    54253    7366
     Max         176     176     47                54271    54271    7387
     Sum        8763    8763   2323              2713169  2713169  368693

     Using Slab Decomposition



     bravais-lattice index     =            0
     lattice parameter (alat)  =       4.9702  a.u.
     unit-cell volume          =    1084.4437 (a.u.)^3
     number of atoms/cell      =            8
     number of atomic types    =            2
     number of electrons       =        44.00
     number of Kohn-Sham states=           26
     kinetic-energy cutoff     =     700.0000  Ry
     charge density cutoff     =    2800.0000  Ry
     scf convergence threshold =      1.0E-08
     mixing beta               =       0.7000
     number of iterations used =            8  plain     mixing
     Exchange-correlation=  SLA  PW   PBX  PBC
                           (   1   4   3   4   0   0   0)

     celldm(1)=   4.970237  celldm(2)=   0.000000  celldm(3)=   0.000000
     celldm(4)=   0.000000  celldm(5)=   0.000000  celldm(6)=   0.000000

     crystal axes: (cart. coord. in units of alat)
               a(1) = (   1.000000   0.000000   0.000000 )  
               a(2) = (   0.000000   1.594189   0.000000 )  
               a(3) = (   0.000000   0.000000   5.540333 )  

     reciprocal axes: (cart. coord. in units 2 pi/alat)
               b(1) = (  1.000000  0.000000  0.000000 )  
               b(2) = (  0.000000  0.627278  0.000000 )  
               b(3) = (  0.000000  0.000000  0.180495 )  


     PseudoPot. # 1 for C  read from file:
     ../pseudo/c_pbe_v1.2.uspp.F.UPF
     MD5 check sum: d1aef80898a10debaa0f26306b886e00
     Pseudo is Ultrasoft + core correction, Zval =  4.0
     Generated by new atomic code, or converted to UPF format
     Using radial grid of  721 points,  4 beta functions with: 
                l(1) =   0
                l(2) =   0
                l(3) =   1
                l(4) =   1
     Q(r) pseudized with  8 coefficients,  rinner =    1.100   1.100   1.100


     PseudoPot. # 2 for F  read from file:
     ../pseudo/f_pbe_v1.4.uspp.F.UPF
     MD5 check sum: 4c38b6a325caf53ec0e86aed9459de46
     Pseudo is Ultrasoft, Zval =  7.0
     Generated by new atomic code, or converted to UPF format
     Using radial grid of  799 points,  4 beta functions with: 
                l(1) =   0
                l(2) =   0
                l(3) =   1
                l(4) =   1
     Q(r) pseudized with  8 coefficients,  rinner =    0.950   0.950   0.950


     atomic species   valence    mass     pseudopotential
        C              4.00    12.01070     C ( 1.00)
        F              7.00    18.99840     F ( 1.00)

      8 Sym. Ops., with inversion, found ( 4 have fractional translation)


                                    s                        frac. trans.

      isym =  1     identity                                     

 cryst.   s( 1) = (     1          0          0      )
                  (     0          1          0      )
                  (     0          0          1      )

 cart.    s( 1) = (  1.0000000  0.0000000  0.0000000 )
                  (  0.0000000  1.0000000  0.0000000 )
                  (  0.0000000  0.0000000  1.0000000 )


      isym =  2     180 deg rotation - cart. axis [0,0,1]        

 cryst.   s( 2) = (    -1          0          0      )    f =(  0.5000000 )
                  (     0         -1          0      )       (  0.5000000 )
                  (     0          0          1      )       (  0.0000000 )

 cart.    s( 2) = ( -1.0000000  0.0000000  0.0000000 )    f =(  0.5000000 )
                  (  0.0000000 -1.0000000  0.0000000 )       (  0.7970945 )
                  (  0.0000000  0.0000000  1.0000000 )       (  0.0000000 )


      isym =  3     180 deg rotation - cart. axis [0,1,0]        

 cryst.   s( 3) = (    -1          0          0      )    f =(  0.5000000 )
                  (     0          1          0      )       ( -0.5000000 )
                  (     0          0         -1      )       (  0.0000000 )

 cart.    s( 3) = ( -1.0000000  0.0000000  0.0000000 )    f =(  0.5000000 )
                  (  0.0000000  1.0000000  0.0000000 )       ( -0.7970945 )
                  (  0.0000000  0.0000000 -1.0000000 )       (  0.0000000 )


      isym =  4     180 deg rotation - cart. axis [1,0,0]        

 cryst.   s( 4) = (     1          0          0      )
                  (     0         -1          0      )
                  (     0          0         -1      )

 cart.    s( 4) = (  1.0000000  0.0000000  0.0000000 )
                  (  0.0000000 -1.0000000  0.0000000 )
                  (  0.0000000  0.0000000 -1.0000000 )


      isym =  5     inversion                                    

 cryst.   s( 5) = (    -1          0          0      )
                  (     0         -1          0      )
                  (     0          0         -1      )

 cart.    s( 5) = ( -1.0000000  0.0000000  0.0000000 )
                  (  0.0000000 -1.0000000  0.0000000 )
                  (  0.0000000  0.0000000 -1.0000000 )


      isym =  6     inv. 180 deg rotation - cart. axis [0,0,1]   

 cryst.   s( 6) = (     1          0          0      )    f =(  0.5000000 )
                  (     0          1          0      )       ( -0.5000000 )
                  (     0          0         -1      )       (  0.0000000 )

 cart.    s( 6) = (  1.0000000  0.0000000  0.0000000 )    f =(  0.5000000 )
                  (  0.0000000  1.0000000  0.0000000 )       ( -0.7970945 )
                  (  0.0000000  0.0000000 -1.0000000 )       (  0.0000000 )


      isym =  7     inv. 180 deg rotation - cart. axis [0,1,0]   

 cryst.   s( 7) = (     1          0          0      )    f =(  0.5000000 )
                  (     0         -1          0      )       (  0.5000000 )
                  (     0          0          1      )       (  0.0000000 )

 cart.    s( 7) = (  1.0000000  0.0000000  0.0000000 )    f =(  0.5000000 )
                  (  0.0000000 -1.0000000  0.0000000 )       (  0.7970945 )
                  (  0.0000000  0.0000000  1.0000000 )       (  0.0000000 )


      isym =  8     inv. 180 deg rotation - cart. axis [1,0,0]   

 cryst.   s( 8) = (    -1          0          0      )
                  (     0          1          0      )
                  (     0          0          1      )

 cart.    s( 8) = ( -1.0000000  0.0000000  0.0000000 )
                  (  0.0000000  1.0000000  0.0000000 )
                  (  0.0000000  0.0000000  1.0000000 )


   Cartesian axes

     site n.     atom                  positions (alat units)
         1           C   tau(   1) = (   0.5000000   0.2256478   0.1937169  )
         2           C   tau(   2) = (   0.0000000   1.0227422  -0.1937169  )
         3           C   tau(   3) = (   0.0000000   0.5714467   0.1937169  )
         4           C   tau(   4) = (   0.5000000   1.3685411  -0.1937169  )
         5           F   tau(   5) = (   0.5000000  -0.0095812  -0.6719762  )
         6           F   tau(   6) = (   0.0000000   0.7875132   0.6719762  )
         7           F   tau(   7) = (   0.0000000   0.8066757  -0.6719762  )
         8           F   tau(   8) = (   0.5000000   0.0095812   0.6719762  )

   Crystallographic axes

     site n.     atom                  positions (cryst. coord.)
         1           C   tau(   1) = (  0.5000000  0.1415439  0.0349649  )
         2           C   tau(   2) = (  0.0000000  0.6415439 -0.0349649  )
         3           C   tau(   3) = (  0.0000000  0.3584561  0.0349649  )
         4           C   tau(   4) = (  0.5000000  0.8584561 -0.0349649  )
         5           F   tau(   5) = (  0.5000000 -0.0060101 -0.1212881  )
         6           F   tau(   6) = (  0.0000000  0.4939899  0.1212881  )
         7           F   tau(   7) = (  0.0000000  0.5060101 -0.1212881  )
         8           F   tau(   8) = (  0.5000000  0.0060101  0.1212881  )

     number of k points=   100  Marzari-Vanderbilt smearing, width (Ry)=  0.0200
                       cart. coord. in units 2pi/alat
        k(    1) = (   0.0000000   0.0000000   0.0000000), wk =   0.0061728
        k(    2) = (   0.0000000   0.0348488   0.0000000), wk =   0.0123457
        k(    3) = (   0.0000000   0.0696976   0.0000000), wk =   0.0123457
        k(    4) = (   0.0000000   0.1045464   0.0000000), wk =   0.0123457
        k(    5) = (   0.0000000   0.1393952   0.0000000), wk =   0.0123457
        k(    6) = (   0.0000000   0.1742440   0.0000000), wk =   0.0123457
        k(    7) = (   0.0000000   0.2090927   0.0000000), wk =   0.0123457
        k(    8) = (   0.0000000   0.2439415   0.0000000), wk =   0.0123457
        k(    9) = (   0.0000000   0.2787903   0.0000000), wk =   0.0123457
        k(   10) = (   0.0000000  -0.3136391   0.0000000), wk =   0.0061728
        k(   11) = (   0.0555556   0.0000000   0.0000000), wk =   0.0123457
        k(   12) = (   0.0555556   0.0348488   0.0000000), wk =   0.0246914
        k(   13) = (   0.0555556   0.0696976   0.0000000), wk =   0.0246914
        k(   14) = (   0.0555556   0.1045464   0.0000000), wk =   0.0246914
        k(   15) = (   0.0555556   0.1393952   0.0000000), wk =   0.0246914
        k(   16) = (   0.0555556   0.1742440   0.0000000), wk =   0.0246914
        k(   17) = (   0.0555556   0.2090927   0.0000000), wk =   0.0246914
        k(   18) = (   0.0555556   0.2439415   0.0000000), wk =   0.0246914
        k(   19) = (   0.0555556   0.2787903   0.0000000), wk =   0.0246914
        k(   20) = (   0.0555556  -0.3136391   0.0000000), wk =   0.0123457
        k(   21) = (   0.1111111   0.0000000   0.0000000), wk =   0.0123457
        k(   22) = (   0.1111111   0.0348488   0.0000000), wk =   0.0246914
        k(   23) = (   0.1111111   0.0696976   0.0000000), wk =   0.0246914
        k(   24) = (   0.1111111   0.1045464   0.0000000), wk =   0.0246914
        k(   25) = (   0.1111111   0.1393952   0.0000000), wk =   0.0246914
        k(   26) = (   0.1111111   0.1742440   0.0000000), wk =   0.0246914
        k(   27) = (   0.1111111   0.2090927   0.0000000), wk =   0.0246914
        k(   28) = (   0.1111111   0.2439415   0.0000000), wk =   0.0246914
        k(   29) = (   0.1111111   0.2787903   0.0000000), wk =   0.0246914
        k(   30) = (   0.1111111  -0.3136391   0.0000000), wk =   0.0123457
        k(   31) = (   0.1666667   0.0000000   0.0000000), wk =   0.0123457
        k(   32) = (   0.1666667   0.0348488   0.0000000), wk =   0.0246914
        k(   33) = (   0.1666667   0.0696976   0.0000000), wk =   0.0246914
        k(   34) = (   0.1666667   0.1045464   0.0000000), wk =   0.0246914
        k(   35) = (   0.1666667   0.1393952   0.0000000), wk =   0.0246914
        k(   36) = (   0.1666667   0.1742440   0.0000000), wk =   0.0246914
        k(   37) = (   0.1666667   0.2090927   0.0000000), wk =   0.0246914
        k(   38) = (   0.1666667   0.2439415   0.0000000), wk =   0.0246914
        k(   39) = (   0.1666667   0.2787903   0.0000000), wk =   0.0246914
        k(   40) = (   0.1666667  -0.3136391   0.0000000), wk =   0.0123457
        k(   41) = (   0.2222222   0.0000000   0.0000000), wk =   0.0123457
        k(   42) = (   0.2222222   0.0348488   0.0000000), wk =   0.0246914
        k(   43) = (   0.2222222   0.0696976   0.0000000), wk =   0.0246914
        k(   44) = (   0.2222222   0.1045464   0.0000000), wk =   0.0246914
        k(   45) = (   0.2222222   0.1393952   0.0000000), wk =   0.0246914
        k(   46) = (   0.2222222   0.1742440   0.0000000), wk =   0.0246914
        k(   47) = (   0.2222222   0.2090927   0.0000000), wk =   0.0246914
        k(   48) = (   0.2222222   0.2439415   0.0000000), wk =   0.0246914
        k(   49) = (   0.2222222   0.2787903   0.0000000), wk =   0.0246914
        k(   50) = (   0.2222222  -0.3136391   0.0000000), wk =   0.0123457
        k(   51) = (   0.2777778   0.0000000   0.0000000), wk =   0.0123457
        k(   52) = (   0.2777778   0.0348488   0.0000000), wk =   0.0246914
        k(   53) = (   0.2777778   0.0696976   0.0000000), wk =   0.0246914
        k(   54) = (   0.2777778   0.1045464   0.0000000), wk =   0.0246914
        k(   55) = (   0.2777778   0.1393952   0.0000000), wk =   0.0246914
        k(   56) = (   0.2777778   0.1742440   0.0000000), wk =   0.0246914
        k(   57) = (   0.2777778   0.2090927   0.0000000), wk =   0.0246914
        k(   58) = (   0.2777778   0.2439415   0.0000000), wk =   0.0246914
        k(   59) = (   0.2777778   0.2787903   0.0000000), wk =   0.0246914
        k(   60) = (   0.2777778  -0.3136391   0.0000000), wk =   0.0123457
        k(   61) = (   0.3333333   0.0000000   0.0000000), wk =   0.0123457
        k(   62) = (   0.3333333   0.0348488   0.0000000), wk =   0.0246914
        k(   63) = (   0.3333333   0.0696976   0.0000000), wk =   0.0246914
        k(   64) = (   0.3333333   0.1045464   0.0000000), wk =   0.0246914
        k(   65) = (   0.3333333   0.1393952   0.0000000), wk =   0.0246914
        k(   66) = (   0.3333333   0.1742440   0.0000000), wk =   0.0246914
        k(   67) = (   0.3333333   0.2090927   0.0000000), wk =   0.0246914
        k(   68) = (   0.3333333   0.2439415   0.0000000), wk =   0.0246914
        k(   69) = (   0.3333333   0.2787903   0.0000000), wk =   0.0246914
        k(   70) = (   0.3333333  -0.3136391   0.0000000), wk =   0.0123457
        k(   71) = (   0.3888889   0.0000000   0.0000000), wk =   0.0123457
        k(   72) = (   0.3888889   0.0348488   0.0000000), wk =   0.0246914
        k(   73) = (   0.3888889   0.0696976   0.0000000), wk =   0.0246914
        k(   74) = (   0.3888889   0.1045464   0.0000000), wk =   0.0246914
        k(   75) = (   0.3888889   0.1393952   0.0000000), wk =   0.0246914
        k(   76) = (   0.3888889   0.1742440   0.0000000), wk =   0.0246914
        k(   77) = (   0.3888889   0.2090927   0.0000000), wk =   0.0246914
        k(   78) = (   0.3888889   0.2439415   0.0000000), wk =   0.0246914
        k(   79) = (   0.3888889   0.2787903   0.0000000), wk =   0.0246914
        k(   80) = (   0.3888889  -0.3136391   0.0000000), wk =   0.0123457
        k(   81) = (   0.4444444   0.0000000   0.0000000), wk =   0.0123457
        k(   82) = (   0.4444444   0.0348488   0.0000000), wk =   0.0246914
        k(   83) = (   0.4444444   0.0696976   0.0000000), wk =   0.0246914
        k(   84) = (   0.4444444   0.1045464   0.0000000), wk =   0.0246914
        k(   85) = (   0.4444444   0.1393952   0.0000000), wk =   0.0246914
        k(   86) = (   0.4444444   0.1742440   0.0000000), wk =   0.0246914
        k(   87) = (   0.4444444   0.2090927   0.0000000), wk =   0.0246914
        k(   88) = (   0.4444444   0.2439415   0.0000000), wk =   0.0246914
        k(   89) = (   0.4444444   0.2787903   0.0000000), wk =   0.0246914
        k(   90) = (   0.4444444  -0.3136391   0.0000000), wk =   0.0123457
        k(   91) = (  -0.5000000   0.0000000   0.0000000), wk =   0.0061728
        k(   92) = (  -0.5000000   0.0348488   0.0000000), wk =   0.0123457
        k(   93) = (  -0.5000000   0.0696976   0.0000000), wk =   0.0123457
        k(   94) = (  -0.5000000   0.1045464   0.0000000), wk =   0.0123457
        k(   95) = (  -0.5000000   0.1393952   0.0000000), wk =   0.0123457
        k(   96) = (  -0.5000000   0.1742440   0.0000000), wk =   0.0123457
        k(   97) = (  -0.5000000   0.2090927   0.0000000), wk =   0.0123457
        k(   98) = (  -0.5000000   0.2439415   0.0000000), wk =   0.0123457
        k(   99) = (  -0.5000000   0.2787903   0.0000000), wk =   0.0123457
        k(  100) = (  -0.5000000  -0.3136391   0.0000000), wk =   0.0061728

                       cryst. coord.
        k(    1) = (   0.0000000   0.0000000   0.0000000), wk =   0.0061728
        k(    2) = (   0.0000000   0.0555556   0.0000000), wk =   0.0123457
        k(    3) = (   0.0000000   0.1111111   0.0000000), wk =   0.0123457
        k(    4) = (   0.0000000   0.1666667   0.0000000), wk =   0.0123457
        k(    5) = (   0.0000000   0.2222222   0.0000000), wk =   0.0123457
        k(    6) = (   0.0000000   0.2777778   0.0000000), wk =   0.0123457
        k(    7) = (   0.0000000   0.3333333   0.0000000), wk =   0.0123457
        k(    8) = (   0.0000000   0.3888889   0.0000000), wk =   0.0123457
        k(    9) = (   0.0000000   0.4444444   0.0000000), wk =   0.0123457
        k(   10) = (   0.0000000  -0.5000000   0.0000000), wk =   0.0061728
        k(   11) = (   0.0555556   0.0000000   0.0000000), wk =   0.0123457
        k(   12) = (   0.0555556   0.0555556   0.0000000), wk =   0.0246914
        k(   13) = (   0.0555556   0.1111111   0.0000000), wk =   0.0246914
        k(   14) = (   0.0555556   0.1666667   0.0000000), wk =   0.0246914
        k(   15) = (   0.0555556   0.2222222   0.0000000), wk =   0.0246914
        k(   16) = (   0.0555556   0.2777778   0.0000000), wk =   0.0246914
        k(   17) = (   0.0555556   0.3333333   0.0000000), wk =   0.0246914
        k(   18) = (   0.0555556   0.3888889   0.0000000), wk =   0.0246914
        k(   19) = (   0.0555556   0.4444444   0.0000000), wk =   0.0246914
        k(   20) = (   0.0555556  -0.5000000   0.0000000), wk =   0.0123457
        k(   21) = (   0.1111111   0.0000000   0.0000000), wk =   0.0123457
        k(   22) = (   0.1111111   0.0555556   0.0000000), wk =   0.0246914
        k(   23) = (   0.1111111   0.1111111   0.0000000), wk =   0.0246914
        k(   24) = (   0.1111111   0.1666667   0.0000000), wk =   0.0246914
        k(   25) = (   0.1111111   0.2222222   0.0000000), wk =   0.0246914
        k(   26) = (   0.1111111   0.2777778   0.0000000), wk =   0.0246914
        k(   27) = (   0.1111111   0.3333333   0.0000000), wk =   0.0246914
        k(   28) = (   0.1111111   0.3888889   0.0000000), wk =   0.0246914
        k(   29) = (   0.1111111   0.4444444   0.0000000), wk =   0.0246914
        k(   30) = (   0.1111111  -0.5000000   0.0000000), wk =   0.0123457
        k(   31) = (   0.1666667   0.0000000   0.0000000), wk =   0.0123457
        k(   32) = (   0.1666667   0.0555556   0.0000000), wk =   0.0246914
        k(   33) = (   0.1666667   0.1111111   0.0000000), wk =   0.0246914
        k(   34) = (   0.1666667   0.1666667   0.0000000), wk =   0.0246914
        k(   35) = (   0.1666667   0.2222222   0.0000000), wk =   0.0246914
        k(   36) = (   0.1666667   0.2777778   0.0000000), wk =   0.0246914
        k(   37) = (   0.1666667   0.3333333   0.0000000), wk =   0.0246914
        k(   38) = (   0.1666667   0.3888889   0.0000000), wk =   0.0246914
        k(   39) = (   0.1666667   0.4444444   0.0000000), wk =   0.0246914
        k(   40) = (   0.1666667  -0.5000000   0.0000000), wk =   0.0123457
        k(   41) = (   0.2222222   0.0000000   0.0000000), wk =   0.0123457
        k(   42) = (   0.2222222   0.0555556   0.0000000), wk =   0.0246914
        k(   43) = (   0.2222222   0.1111111   0.0000000), wk =   0.0246914
        k(   44) = (   0.2222222   0.1666667   0.0000000), wk =   0.0246914
        k(   45) = (   0.2222222   0.2222222   0.0000000), wk =   0.0246914
        k(   46) = (   0.2222222   0.2777778   0.0000000), wk =   0.0246914
        k(   47) = (   0.2222222   0.3333333   0.0000000), wk =   0.0246914
        k(   48) = (   0.2222222   0.3888889   0.0000000), wk =   0.0246914
        k(   49) = (   0.2222222   0.4444444   0.0000000), wk =   0.0246914
        k(   50) = (   0.2222222  -0.5000000   0.0000000), wk =   0.0123457
        k(   51) = (   0.2777778   0.0000000   0.0000000), wk =   0.0123457
        k(   52) = (   0.2777778   0.0555556   0.0000000), wk =   0.0246914
        k(   53) = (   0.2777778   0.1111111   0.0000000), wk =   0.0246914
        k(   54) = (   0.2777778   0.1666667   0.0000000), wk =   0.0246914
        k(   55) = (   0.2777778   0.2222222   0.0000000), wk =   0.0246914
        k(   56) = (   0.2777778   0.2777778   0.0000000), wk =   0.0246914
        k(   57) = (   0.2777778   0.3333333   0.0000000), wk =   0.0246914
        k(   58) = (   0.2777778   0.3888889   0.0000000), wk =   0.0246914
        k(   59) = (   0.2777778   0.4444444   0.0000000), wk =   0.0246914
        k(   60) = (   0.2777778  -0.5000000   0.0000000), wk =   0.0123457
        k(   61) = (   0.3333333   0.0000000   0.0000000), wk =   0.0123457
        k(   62) = (   0.3333333   0.0555556   0.0000000), wk =   0.0246914
        k(   63) = (   0.3333333   0.1111111   0.0000000), wk =   0.0246914
        k(   64) = (   0.3333333   0.1666667   0.0000000), wk =   0.0246914
        k(   65) = (   0.3333333   0.2222222   0.0000000), wk =   0.0246914
        k(   66) = (   0.3333333   0.2777778   0.0000000), wk =   0.0246914
        k(   67) = (   0.3333333   0.3333333   0.0000000), wk =   0.0246914
        k(   68) = (   0.3333333   0.3888889   0.0000000), wk =   0.0246914
        k(   69) = (   0.3333333   0.4444444   0.0000000), wk =   0.0246914
        k(   70) = (   0.3333333  -0.5000000   0.0000000), wk =   0.0123457
        k(   71) = (   0.3888889   0.0000000   0.0000000), wk =   0.0123457
        k(   72) = (   0.3888889   0.0555556   0.0000000), wk =   0.0246914
        k(   73) = (   0.3888889   0.1111111   0.0000000), wk =   0.0246914
        k(   74) = (   0.3888889   0.1666667   0.0000000), wk =   0.0246914
        k(   75) = (   0.3888889   0.2222222   0.0000000), wk =   0.0246914
        k(   76) = (   0.3888889   0.2777778   0.0000000), wk =   0.0246914
        k(   77) = (   0.3888889   0.3333333   0.0000000), wk =   0.0246914
        k(   78) = (   0.3888889   0.3888889   0.0000000), wk =   0.0246914
        k(   79) = (   0.3888889   0.4444444   0.0000000), wk =   0.0246914
        k(   80) = (   0.3888889  -0.5000000   0.0000000), wk =   0.0123457
        k(   81) = (   0.4444444   0.0000000   0.0000000), wk =   0.0123457
        k(   82) = (   0.4444444   0.0555556   0.0000000), wk =   0.0246914
        k(   83) = (   0.4444444   0.1111111   0.0000000), wk =   0.0246914
        k(   84) = (   0.4444444   0.1666667   0.0000000), wk =   0.0246914
        k(   85) = (   0.4444444   0.2222222   0.0000000), wk =   0.0246914
        k(   86) = (   0.4444444   0.2777778   0.0000000), wk =   0.0246914
        k(   87) = (   0.4444444   0.3333333   0.0000000), wk =   0.0246914
        k(   88) = (   0.4444444   0.3888889   0.0000000), wk =   0.0246914
        k(   89) = (   0.4444444   0.4444444   0.0000000), wk =   0.0246914
        k(   90) = (   0.4444444  -0.5000000   0.0000000), wk =   0.0123457
        k(   91) = (  -0.5000000   0.0000000   0.0000000), wk =   0.0061728
        k(   92) = (  -0.5000000   0.0555556   0.0000000), wk =   0.0123457
        k(   93) = (  -0.5000000   0.1111111   0.0000000), wk =   0.0123457
        k(   94) = (  -0.5000000   0.1666667   0.0000000), wk =   0.0123457
        k(   95) = (  -0.5000000   0.2222222   0.0000000), wk =   0.0123457
        k(   96) = (  -0.5000000   0.2777778   0.0000000), wk =   0.0123457
        k(   97) = (  -0.5000000   0.3333333   0.0000000), wk =   0.0123457
        k(   98) = (  -0.5000000   0.3888889   0.0000000), wk =   0.0123457
        k(   99) = (  -0.5000000   0.4444444   0.0000000), wk =   0.0123457
        k(  100) = (  -0.5000000  -0.5000000   0.0000000), wk =   0.0061728

     Dense  grid:  2713169 G-vectors     FFT dimensions: (  90, 144, 480)

     Dynamical RAM for                 wfc:       2.69 MB

     Dynamical RAM for     wfc (w. buffer):     271.79 MB

     Dynamical RAM for           str. fact:       1.66 MB

     Dynamical RAM for           local pot:       0.00 MB

     Dynamical RAM for          nlocal pot:       6.62 MB

     Dynamical RAM for                qrad:       2.42 MB

     Dynamical RAM for          rho,v,vnew:       5.45 MB

     Dynamical RAM for               rhoin:       1.82 MB

     Dynamical RAM for            rho*nmix:      13.25 MB

     Dynamical RAM for           G-vectors:       3.52 MB

     Dynamical RAM for          h,s,v(r/c):       0.12 MB

     Dynamical RAM for          <psi|beta>:       0.03 MB

     Dynamical RAM for                 psi:       5.38 MB

     Dynamical RAM for                hpsi:       5.38 MB

     Dynamical RAM for                spsi:       5.38 MB

     Dynamical RAM for      wfcinit/wfcrot:       6.65 MB

     Dynamical RAM for           addusdens:      38.92 MB

     Dynamical RAM for          addusforce:      44.30 MB

     Dynamical RAM for         addusstress:      41.40 MB

     Estimated static dynamical RAM per process >     300.71 MB

     Estimated max dynamical RAM per process >     358.26 MB

     Estimated total dynamical RAM >      17.49 GB

     Initial potential from superposition of free atoms

     starting charge      43.9998, renormalised to      44.0000

     negative rho (up, down):  6.060E-03 0.000E+00
     Starting wfcs are   32 randomized atomic wfcs

     total cpu time spent up to now is      183.5 secs

     Self-consistent Calculation

     iteration #  1     ecut=   700.00 Ry     beta= 0.70
     Davidson diagonalization with overlap

---- Real-time Memory Report at c_bands before calling an iterative solver
           349 MiB given to the printing process from OS
             0 MiB allocation reported by mallinfo(arena+hblkhd)
        325622 MiB available memory on the node where the printing process lives
------------------
     ethr =  1.00E-02,  avg # of iterations =  4.2

     negative rho (up, down):  1.630E-03 0.000E+00

     total cpu time spent up to now is     1072.3 secs

     total energy              =    -240.10938277 Ry
     estimated scf accuracy    <       0.44475133 Ry

     iteration #  2     ecut=   700.00 Ry     beta= 0.70
     Davidson diagonalization with overlap

---- Real-time Memory Report at c_bands before calling an iterative solver
           391 MiB given to the printing process from OS
             0 MiB allocation reported by mallinfo(arena+hblkhd)
        323319 MiB available memory on the node where the printing process lives
------------------
     ethr =  1.01E-03,  avg # of iterations =  3.7

     negative rho (up, down):  1.010E-03 0.000E+00

     total cpu time spent up to now is     1911.7 secs

     total energy              =    -240.13075564 Ry
     estimated scf accuracy    <       0.43890926 Ry

     iteration #  3     ecut=   700.00 Ry     beta= 0.70
     Davidson diagonalization with overlap

---- Real-time Memory Report at c_bands before calling an iterative solver
           396 MiB given to the printing process from OS
             0 MiB allocation reported by mallinfo(arena+hblkhd)
        323193 MiB available memory on the node where the printing process lives
------------------
     ethr =  9.98E-04,  avg # of iterations =  2.2

     negative rho (up, down):  1.846E-04 0.000E+00

     total cpu time spent up to now is     2514.9 secs

     total energy              =    -240.24482615 Ry
     estimated scf accuracy    <       0.02077244 Ry

     iteration #  4     ecut=   700.00 Ry     beta= 0.70
     Davidson diagonalization with overlap

---- Real-time Memory Report at c_bands before calling an iterative solver
           398 MiB given to the printing process from OS
             0 MiB allocation reported by mallinfo(arena+hblkhd)
        323101 MiB available memory on the node where the printing process lives
------------------
     ethr =  4.72E-05,  avg # of iterations =  4.7

     negative rho (up, down):  3.272E-05 0.000E+00

     total cpu time spent up to now is     3445.2 secs

     total energy              =    -240.24707681 Ry
     estimated scf accuracy    <       0.00169098 Ry

     iteration #  5     ecut=   700.00 Ry     beta= 0.70
     Davidson diagonalization with overlap

---- Real-time Memory Report at c_bands before calling an iterative solver
           400 MiB given to the printing process from OS
             0 MiB allocation reported by mallinfo(arena+hblkhd)
        323020 MiB available memory on the node where the printing process lives
------------------
     ethr =  3.84E-06,  avg # of iterations =  5.4

     negative rho (up, down):  1.252E-06 0.000E+00

     total cpu time spent up to now is     4516.0 secs

     total energy              =    -240.24742958 Ry
     estimated scf accuracy    <       0.00002250 Ry

     iteration #  6     ecut=   700.00 Ry     beta= 0.70
     Davidson diagonalization with overlap

---- Real-time Memory Report at c_bands before calling an iterative solver
           402 MiB given to the printing process from OS
             0 MiB allocation reported by mallinfo(arena+hblkhd)
        322896 MiB available memory on the node where the printing process lives
------------------
     ethr =  5.11E-08,  avg # of iterations =  4.1

     negative rho (up, down):  1.339E-06 0.000E+00

     total cpu time spent up to now is     5417.9 secs

     total energy              =    -240.24744032 Ry
     estimated scf accuracy    <       0.00001984 Ry

     iteration #  7     ecut=   700.00 Ry     beta= 0.70
     Davidson diagonalization with overlap

---- Real-time Memory Report at c_bands before calling an iterative solver
           403 MiB given to the printing process from OS
             0 MiB allocation reported by mallinfo(arena+hblkhd)
        322826 MiB available memory on the node where the printing process lives
------------------
     ethr =  4.51E-08,  avg # of iterations =  1.9

     negative rho (up, down):  1.348E-06 0.000E+00

     total cpu time spent up to now is     5952.4 secs

     total energy              =    -240.24744126 Ry
     estimated scf accuracy    <       0.00000180 Ry

     iteration #  8     ecut=   700.00 Ry     beta= 0.70
     Davidson diagonalization with overlap

---- Real-time Memory Report at c_bands before calling an iterative solver
           405 MiB given to the printing process from OS
             0 MiB allocation reported by mallinfo(arena+hblkhd)
        322750 MiB available memory on the node where the printing process lives
------------------
     ethr =  4.08E-09,  avg # of iterations =  3.2

     negative rho (up, down):  1.353E-06 0.000E+00

     total cpu time spent up to now is     6718.2 secs

     total energy              =    -240.24744200 Ry
     estimated scf accuracy    <       0.00000056 Ry

     iteration #  9     ecut=   700.00 Ry     beta= 0.70
     Davidson diagonalization with overlap

---- Real-time Memory Report at c_bands before calling an iterative solver
           407 MiB given to the printing process from OS
             0 MiB allocation reported by mallinfo(arena+hblkhd)
        322652 MiB available memory on the node where the printing process lives
------------------
     ethr =  1.27E-09,  avg # of iterations =  2.1

     negative rho (up, down):  1.339E-06 0.000E+00

     total cpu time spent up to now is     7296.0 secs

     total energy              =    -240.24744207 Ry
     estimated scf accuracy    <       0.00000001 Ry

     iteration # 10     ecut=   700.00 Ry     beta= 0.70
     Davidson diagonalization with overlap

---- Real-time Memory Report at c_bands before calling an iterative solver
           409 MiB given to the printing process from OS
             0 MiB allocation reported by mallinfo(arena+hblkhd)
        322583 MiB available memory on the node where the printing process lives
------------------
     ethr =  3.33E-11,  avg # of iterations =  3.5

     negative rho (up, down):  1.335E-06 0.000E+00

     total cpu time spent up to now is     8102.7 secs

     End of self-consistent calculation

          k = 0.0000 0.0000 0.0000 (339089 PWs)   bands (ev):

   -28.1834 -27.9022 -26.6494 -26.5318 -18.8098 -15.5402 -13.5843 -11.1232
   -10.3489  -9.9809  -8.6995  -8.2805  -7.6842  -7.5566  -7.3229  -5.4480
    -5.3045  -5.2488  -4.5965  -4.2727  -4.0437  -2.7239   0.8195   3.2719
     3.3854   4.4165

     occupation numbers 
     1.0000   1.0000   1.0000   1.0000   1.0000   1.0000   1.0000   1.0000
     1.0000   1.0000   1.0000   1.0000   1.0000   1.0000   1.0000   1.0000
     1.0000   1.0000   1.0000   1.0000   1.0000   1.0000   0.0000   0.0000
     0.0000   0.0000

          k = 0.0000 0.0348 0.0000 (339141 PWs)   bands (ev):

   -28.1759 -27.8966 -26.6586 -26.5404 -18.7946 -15.6000 -13.5341 -11.1130
   -10.3199  -9.9904  -8.6872  -8.2836  -7.7087  -7.5318  -7.3264  -5.4603
    -5.3134  -5.2832  -4.6121  -4.2625  -4.0337  -2.7373   0.8558   3.2783
     3.3842   4.4631

     occupation numbers 
     1.0000   1.0000   1.0000   1.0000   1.0000   1.0000   1.0000   1.0000
     1.0000   1.0000   1.0000   1.0000   1.0000   1.0000   1.0000   1.0000
     1.0000   1.0000   1.0000   1.0000   1.0000   1.0000   0.0000   0.0000
     0.0000   0.0000

          k = 0.0000 0.0697 0.0000 (339085 PWs)   bands (ev):

   -28.1535 -27.8805 -26.6851 -26.5656 -18.7490 -15.7621 -13.3993 -11.0867
   -10.2359 -10.0143  -8.6504  -8.2937  -7.7774  -7.4624  -7.3376  -5.4949
    -5.3765  -5.3392  -4.6556  -4.2413  -4.0043  -2.7761   0.9617   3.2975
     3.3798   4.6003

     occupation numbers 
     1.0000   1.0000   1.0000   1.0000   1.0000   1.0000   1.0000   1.0000
     1.0000   1.0000   1.0000   1.0000   1.0000   1.0000   1.0000   1.0000
     1.0000   1.0000   1.0000   1.0000   1.0000   1.0000   0.0000   0.0000
     0.0000   0.0000

          k = 0.0000 0.1045 0.0000 (339011 PWs)   bands (ev):

   -28.1172 -27.8551 -26.7268 -26.6059 -18.6734 -15.9917 -13.2103 -11.0589
   -10.1048 -10.0380  -8.5902  -8.3132  -7.8864  -7.3593  -7.3536  -5.5459
    -5.5080  -5.3795  -4.7173  -4.2283  -3.9572  -2.8371   1.1293   3.3294
     3.3693   4.8212

     occupation numbers 
     1.0000   1.0000   1.0000   1.0000   1.0000   1.0000   1.0000   1.0000
     1.0000   1.0000   1.0000   1.0000   1.0000   1.0000   1.0000   1.0000
     1.0000   1.0000   1.0000   1.0000   1.0000   1.0000   0.0000   0.0000
     0.0000   0.0000

          k = 0.0000 0.1394 0.0000 (339099 PWs)   bands (ev):

   -28.0686 -27.8231 -26.7795 -26.6586 -18.5684 -16.2587 -12.9912 -11.0546
   -10.0359  -9.9385  -8.5080  -8.3458  -8.0327  -7.3955  -7.2106  -5.6581
    -5.6039  -5.4307  -4.7835  -4.2399  -3.8948  -2.9159   1.3474   3.3474
     3.3736   4.7148

     occupation numbers 
     1.0000   1.0000   1.0000   1.0000   1.0000   1.0000   1.0000   1.0000
     1.0000   1.0000   1.0000   1.0000   1.0000   1.0000   1.0000   1.0000
     1.0000   1.0000   1.0000   1.0000   1.0000   1.0000   0.0000   0.0000
     0.0000   0.0000

          k = 0.0000 0.1742 0.0000 (339041 PWs)   bands (ev):

   -28.0099 -27.7886 -26.8373 -26.7202 -18.4347 -16.5428 -12.7561 -11.1012
    -9.9810  -9.7508  -8.4061  -8.3960  -8.2106  -7.4506  -7.0426  -5.8121
    -5.6584  -5.4887  -4.8391  -4.2853  -3.8194  -3.0079   1.6034   3.3062
     3.4300   4.5694

     occupation numbers 
     1.0000   1.0000   1.0000   1.0000   1.0000   1.0000   1.0000   1.0000
     1.0000   1.0000   1.0000   1.0000   1.0000   1.0000   1.0000   1.0000
     1.0000   1.0000   1.0000   1.0000   1.0000   1.0000   0.0000   0.0000
     0.0000   0.0000

          k = 0.0000 0.2091 0.0000 (338975 PWs)   bands (ev):

   -27.9447 -27.7579 -26.8919 -26.7860 -18.2733 -16.8306 -12.5130 -11.2094
    -9.8637  -9.5572  -8.4677  -8.4105  -8.2876  -7.5279  -6.8618  -5.9606
    -5.6995  -5.5492  -4.8691  -4.3656  -3.7334  -3.1088   1.8841   3.2349
     3.4991   4.3676

     occupation numbers 
     1.0000   1.0000   1.0000   1.0000   1.0000   1.0000   1.0000   1.0000
     1.0000   1.0000   1.0000   1.0000   1.0000   1.0000   1.0000   1.0000
     1.0000   1.0000   1.0000   1.0000   1.0000   1.0000   0.0000   0.0000
     0.0000   0.0000

          k = 0.0000 0.2439 0.0000 (338914 PWs)   bands (ev):

   -27.8778 -27.7392 -26.9333 -26.8499 -18.0857 -17.1131 -12.2673 -11.3696
    -9.6967  -9.3795  -8.6139  -8.5623  -8.1568  -7.6278  -6.6828  -6.1001
    -5.7207  -5.6074  -4.8612  -4.4744  -3.6388  -3.2150   2.1757   3.1202
     3.5823   4.1556

     occupation numbers 
     1.0000   1.0000   1.0000   1.0000   1.0000   1.0000   1.0000   1.0000
     1.0000   1.0000   1.0000   1.0000   1.0000   1.0000   1.0000   1.0000
     1.0000   1.0000   1.0000   1.0000   1.0000   1.0000   0.0000   0.0000
     0.0000   0.0000

          k = 0.0000 0.2788 0.0000 (338928 PWs)   bands (ev):

   -27.8161 -27.7412 -26.9515 -26.9046 -17.8734 -17.3840 -12.0237 -11.5667
    -9.5039  -9.2692  -8.7696  -8.6741  -8.0187  -7.7470  -6.5172  -6.2335
    -5.7196  -5.6585  -4.8088  -4.5978  -3.5376  -3.3236   2.4629   2.9512
     3.6831   3.9646

     occupation numbers 
     1.0000   1.0000   1.0000   1.0000   1.0000   1.0000   1.0000   1.0000
     1.0000   1.0000   1.0000   1.0000   1.0000   1.0000   1.0000   1.0000
     1.0000   1.0000   1.0000   1.0000   1.0000   1.0000   0.0000   0.0000
     0.0000   0.0000

          k = 0.0000-0.3136 0.0000 (338886 PWs)   bands (ev):

   -27.7679 -27.7679 -26.9410 -26.9410 -17.6386 -17.6386 -11.7879 -11.7879
    -9.3269  -9.3269  -8.7750  -8.7750  -7.8797  -7.8797  -6.3691  -6.3691
    -5.6976  -5.6976  -4.7161  -4.7161  -3.4318  -3.4318   2.7277   2.7277
     3.8079   3.8079

     occupation numbers 
     1.0000   1.0000   1.0000   1.0000   1.0000   1.0000   1.0000   1.0000
     1.0000   1.0000   1.0000   1.0000   1.0000   1.0000   1.0000   1.0000
     1.0000   1.0000   1.0000   1.0000   1.0000   1.0000   0.0000   0.0000
     0.0000   0.0000

          k = 0.0556 0.0000 0.0000 (339157 PWs)   bands (ev):

   -28.1621 -27.8834 -26.6486 -26.5316 -18.7713 -15.5027 -13.5675 -11.0920
   -10.3297  -9.9850  -8.8973  -8.3042  -7.6571  -7.5324  -7.4468  -5.5455
    -5.3811  -5.2634  -4.6156  -4.2401  -4.1470  -2.8797   0.8827   3.5730
     3.6082   4.2758

     occupation numbers 
     1.0000   1.0000   1.0000   1.0000   1.0000   1.0000   1.0000   1.0000
     1.0000   1.0000   1.0000   1.0000   1.0000   1.0000   1.0000   1.0000
     1.0000   1.0000   1.0000   1.0000   1.0000   1.0000   0.0000   0.0000
     0.0000   0.0000

          k = 0.0556 0.0348 0.0000 (339152 PWs)   bands (ev):

   -28.1546 -27.8779 -26.6576 -26.5401 -18.7561 -15.5629 -13.5171 -11.0825
   -10.3017  -9.9946  -8.8852  -8.3081  -7.6820  -7.5068  -7.4509  -5.5655
    -5.3900  -5.2807  -4.6282  -4.2354  -4.1378  -2.8937   0.9176   3.5790
     3.6070   4.3183

     occupation numbers 
     1.0000   1.0000   1.0000   1.0000   1.0000   1.0000   1.0000   1.0000
     1.0000   1.0000   1.0000   1.0000   1.0000   1.0000   1.0000   1.0000
     1.0000   1.0000   1.0000   1.0000   1.0000   1.0000   0.0000   0.0000
     0.0000   0.0000

          k = 0.0556 0.0697 0.0000 (339069 PWs)   bands (ev):

   -28.1325 -27.8620 -26.6837 -26.5648 -18.7107 -15.7258 -13.3819 -11.0584
   -10.2207 -10.0186  -8.8492  -8.3205  -7.7501  -7.4639  -7.4368  -5.6193
    -5.4155  -5.3317  -4.6639  -4.2265  -4.1102  -2.9340   1.0199   3.5969
     3.6023   4.4386

     occupation numbers 
     1.0000   1.0000   1.0000   1.0000   1.0000   1.0000   1.0000   1.0000
     1.0000   1.0000   1.0000   1.0000   1.0000   1.0000   1.0000   1.0000
     1.0000   1.0000   1.0000   1.0000   1.0000   1.0000   0.0000   0.0000
     0.0000   0.0000

          k = 0.0556 0.1045 0.0000 (339044 PWs)   bands (ev):

   -28.0966 -27.8369 -26.7247 -26.6044 -18.6353 -15.9562 -13.1930 -11.0341
   -10.0950 -10.0424  -8.7907  -8.3438  -7.8555  -7.4878  -7.3283  -5.6931
    -5.4540  -5.4123  -4.7165  -4.2260  -4.0651  -2.9959   1.1824   3.5906
     3.6262   4.6020

     occupation numbers 
     1.0000   1.0000   1.0000   1.0000   1.0000   1.0000   1.0000   1.0000
     1.0000   1.0000   1.0000   1.0000   1.0000   1.0000   1.0000   1.0000
     1.0000   1.0000   1.0000   1.0000   1.0000   1.0000   0.0000   0.0000
     0.0000   0.0000

          k = 0.0556 0.1394 0.0000 (339048 PWs)   bands (ev):

   -28.0484 -27.8052 -26.7765 -26.6563 -18.5305 -16.2236 -12.9745 -11.0345
   -10.0408  -9.9367  -8.7136  -8.3815  -7.9920  -7.5254  -7.1865  -5.7736
    -5.5131  -5.5007  -4.7757  -4.2471  -4.0041  -3.0735   1.3951   3.5653
     3.6665   4.6921

     occupation numbers 
     1.0000   1.0000   1.0000   1.0000   1.0000   1.0000   1.0000   1.0000
     1.0000   1.0000   1.0000   1.0000   1.0000   1.0000   1.0000   1.0000
     1.0000   1.0000   1.0000   1.0000   1.0000   1.0000   0.0000   0.0000
     0.0000   0.0000

          k = 0.0556 0.1742 0.0000 (339034 PWs)   bands (ev):

   -27.9904 -27.7711 -26.8332 -26.7170 -18.3971 -16.5078 -12.7407 -11.0858
    -9.9878  -9.7603  -8.6301  -8.4372  -8.1429  -7.5796  -7.0200  -5.8560
    -5.6174  -5.5508  -4.8286  -4.2988  -3.9300  -3.1611   1.6467   3.5148
     3.7168   4.6090

     occupation numbers 
     1.0000   1.0000   1.0000   1.0000   1.0000   1.0000   1.0000   1.0000
     1.0000   1.0000   1.0000   1.0000   1.0000   1.0000   1.0000   1.0000
     1.0000   1.0000   1.0000   1.0000   1.0000   1.0000   0.0000   0.0000
     0.0000   0.0000

          k = 0.0556 0.2091 0.0000 (339032 PWs)   bands (ev):

   -27.9259 -27.7408 -26.8870 -26.7818 -18.2360 -16.7955 -12.4991 -11.1974
    -9.8750  -9.5814  -8.5900  -8.5134  -8.2521  -7.6522  -6.8404  -5.9495
    -5.6998  -5.6006  -4.8608  -4.3827  -3.8455  -3.2549   1.9258   3.4233
     3.7765   4.4419

     occupation numbers 
     1.0000   1.0000   1.0000   1.0000   1.0000   1.0000   1.0000   1.0000
     1.0000   1.0000   1.0000   1.0000   1.0000   1.0000   1.0000   1.0000
     1.0000   1.0000   1.0000   1.0000   1.0000   1.0000   0.0000   0.0000
     0.0000   0.0000

          k = 0.0556 0.2439 0.0000 (338960 PWs)   bands (ev):

   -27.8597 -27.7224 -26.9276 -26.8449 -18.0488 -17.0777 -12.2550 -11.3596
    -9.7159  -9.4214  -8.6777  -8.6090  -8.2214  -7.7442  -6.6607  -6.0639
    -5.7411  -5.6477  -4.8588  -4.4924  -3.7531  -3.3527   2.2206   3.2747
     3.8452   4.2708

     occupation numbers 
     1.0000   1.0000   1.0000   1.0000   1.0000   1.0000   1.0000   1.0000
     1.0000   1.0000   1.0000   1.0000   1.0000   1.0000   1.0000   1.0000
     1.0000   1.0000   1.0000   1.0000   1.0000   1.0000   0.0000   0.0000
     0.0000   0.0000

          k = 0.0556 0.2788 0.0000 (338926 PWs)   bands (ev):

   -27.7986 -27.7244 -26.9453 -26.8988 -17.8369 -17.3483 -12.0130 -11.5573
    -9.5352  -9.3265  -8.7957  -8.7157  -8.1083  -7.8544  -6.4913  -6.1946
    -5.7453  -5.6903  -4.8137  -4.6138  -3.6553  -3.4531   2.5188   3.0648
     3.9238   4.1282

     occupation numbers 
     1.0000   1.0000   1.0000   1.0000   1.0000   1.0000   1.0000   1.0000
     1.0000   1.0000   1.0000   1.0000   1.0000   1.0000   1.0000   1.0000
     1.0000   1.0000   1.0000   1.0000   1.0000   1.0000   0.0000   0.0000
     0.0000   0.0000

          k = 0.0556-0.3136 0.0000 (338882 PWs)   bands (ev):

   -27.7509 -27.7509 -26.9349 -26.9349 -17.6025 -17.6025 -11.7782 -11.7782
    -9.3757  -9.3757  -8.8036  -8.8036  -7.9789  -7.9789  -6.3365  -6.3365
    -5.7250  -5.7250  -4.7276  -4.7276  -3.5546  -3.5546   2.8062   2.8062
     4.0157   4.0157

     occupation numbers 
     1.0000   1.0000   1.0000   1.0000   1.0000   1.0000   1.0000   1.0000
     1.0000   1.0000   1.0000   1.0000   1.0000   1.0000   1.0000   1.0000
     1.0000   1.0000   1.0000   1.0000   1.0000   1.0000   0.0000   0.0000
     0.0000   0.0000

          k = 0.1111 0.0000 0.0000 (339168 PWs)   bands (ev):

   -28.0993 -27.8281 -26.6475 -26.5320 -18.6561 -15.3908 -13.5224 -10.9999
   -10.2737 -10.0028  -9.3980  -8.3832  -7.7870  -7.6322  -7.4610  -5.7737
    -5.5924  -5.3186  -4.6936  -4.3840  -4.1912  -3.2726   1.0600   4.0618
     4.1786   4.3918

     occupation numbers 
     1.0000   1.0000   1.0000   1.0000   1.0000   1.0000   1.0000   1.0000
     1.0000   1.0000   1.0000   1.0000   1.0000   1.0000   1.0000   1.0000
     1.0000   1.0000   1.0000   1.0000   1.0000   1.0000   0.0000   0.0000
     0.0000   0.0000

          k = 0.1111 0.0348 0.0000 (339168 PWs)   bands (ev):

   -28.0921 -27.8228 -26.6559 -26.5400 -18.6410 -15.4522 -13.4713 -10.9927
   -10.2499 -10.0126  -9.3830  -8.3903  -7.7907  -7.6577  -7.4366  -5.7924
    -5.5999  -5.3178  -4.6970  -4.3788  -4.1952  -3.2889   1.0915   4.1050
     4.1772   4.3963

     occupation numbers 
     1.0000   1.0000   1.0000   1.0000   1.0000   1.0000   1.0000   1.0000
     1.0000   1.0000   1.0000   1.0000   1.0000   1.0000   1.0000   1.0000
     1.0000   1.0000   1.0000   1.0000   1.0000   1.0000   0.0000   0.0000
     0.0000   0.0000

          k = 0.1111 0.0697 0.0000 (339216 PWs)   bands (ev):

   -28.0706 -27.8074 -26.6807 -26.5636 -18.5959 -15.6176 -13.3352 -10.9754
   -10.1819 -10.0374  -9.3378  -8.4122  -7.8019  -7.7278  -7.3694  -5.8378
    -5.6205  -5.3260  -4.7101  -4.3603  -4.2081  -3.3345   1.1841   4.1710
     4.2296   4.4090

     occupation numbers 
     1.0000   1.0000   1.0000   1.0000   1.0000   1.0000   1.0000   1.0000
     1.0000   1.0000   1.0000   1.0000   1.0000   1.0000   1.0000   1.0000
     1.0000   1.0000   1.0000   1.0000   1.0000   1.0000   0.0000   0.0000
     0.0000   0.0000

          k = 0.1111 0.1045 0.0000 (339162 PWs)   bands (ev):

   -28.0358 -27.7832 -26.7195 -26.6013 -18.5210 -15.8500 -13.1468 -10.9624
   -10.0796 -10.0628  -9.2623  -8.4506  -7.8347  -7.8206  -7.2658  -5.8892
    -5.6495  -5.3619  -4.7367  -4.3238  -4.2332  -3.4004   1.3330   4.1530
     4.4180   4.4295

     occupation numbers 
     1.0000   1.0000   1.0000   1.0000   1.0000   1.0000   1.0000   1.0000
     1.0000   1.0000   1.0000   1.0000   1.0000   1.0000   1.0000   1.0000
     1.0000   1.0000   1.0000   1.0000   1.0000   1.0000   0.0000   0.0000
     0.0000   0.0000

          k = 0.1111 0.1394 0.0000 (339048 PWs)   bands (ev):

   -27.9892 -27.7526 -26.7686 -26.6507 -18.4169 -16.1187 -12.9309 -10.9774
   -10.0644  -9.9566  -9.1584  -8.5071  -7.9702  -7.8473  -7.1310  -5.9310
    -5.6811  -5.4356  -4.7753  -4.2770  -4.2685  -3.4751   1.5308   4.1081
     4.4564   4.6236

     occupation numbers 
     1.0000   1.0000   1.0000   1.0000   1.0000   1.0000   1.0000   1.0000
     1.0000   1.0000   1.0000   1.0000   1.0000   1.0000   1.0000   1.0000
     1.0000   1.0000   1.0000   1.0000   1.0000   1.0000   0.0000   0.0000
     0.0000   0.0000

          k = 0.1111 0.1742 0.0000 (339040 PWs)   bands (ev):

   -27.9330 -27.7198 -26.8224 -26.7086 -18.2844 -16.4032 -12.7012 -11.0436
   -10.0193  -9.8271  -9.0352  -8.5814  -8.1203  -7.8833  -6.9723  -5.9570
    -5.7105  -5.5440  -4.8175  -4.3460  -4.1979  -3.5499   1.7695   4.0101
     4.4878   4.7341

     occupation numbers 
     1.0000   1.0000   1.0000   1.0000   1.0000   1.0000   1.0000   1.0000
     1.0000   1.0000   1.0000   1.0000   1.0000   1.0000   1.0000   1.0000
     1.0000   1.0000   1.0000   1.0000   1.0000   1.0000   0.0000   0.0000
     0.0000   0.0000

          k = 0.1111 0.2091 0.0000 (339008 PWs)   bands (ev):

   -27.8706 -27.6906 -26.8733 -26.7705 -18.1244 -16.6906 -12.4647 -11.1666
    -9.9235  -9.7036  -8.9172  -8.6697  -8.2571  -7.9318  -6.7987  -5.9730
    -5.7351  -5.6712  -4.8508  -4.4408  -4.1165  -3.6220   2.0405   3.8334
     4.5215   4.7149

     occupation numbers 
     1.0000   1.0000   1.0000   1.0000   1.0000   1.0000   1.0000   1.0000
     1.0000   1.0000   1.0000   1.0000   1.0000   1.0000   1.0000   1.0000
     1.0000   1.0000   1.0000   1.0000   1.0000   1.0000   0.0000   0.0000
     0.0000   0.0000

          k = 0.1111 0.2439 0.0000 (338985 PWs)   bands (ev):

   -27.8066 -27.6731 -26.9117 -26.8309 -17.9383 -16.9720 -12.2258 -11.3355
    -9.7935  -9.5997  -8.8558  -8.7633  -8.3244  -7.9968  -6.6199  -6.0104
    -5.7779  -5.7561  -4.8607  -4.5533  -4.0291  -3.6943   2.3357   3.5819
     4.5548   4.6723

     occupation numbers 
     1.0000   1.0000   1.0000   1.0000   1.0000   1.0000   1.0000   1.0000
     1.0000   1.0000   1.0000   1.0000   1.0000   1.0000   1.0000   1.0000
     1.0000   1.0000   1.0000   1.0000   1.0000   1.0000   0.0000   0.0000
     0.0000   0.0000

          k = 0.1111 0.2788 0.0000 (338940 PWs)   bands (ev):

   -27.7474 -27.6753 -26.9281 -26.8827 -17.7276 -17.2415 -11.9881 -11.5358
    -9.6575  -9.5394  -8.8749  -8.8462  -8.2816  -8.0814  -6.4431  -6.1186
    -5.8116  -5.7771  -4.8343  -4.6684  -3.9399  -3.7706   2.6474   3.2843
     4.5856   4.6401

     occupation numbers 
     1.0000   1.0000   1.0000   1.0000   1.0000   1.0000   1.0000   1.0000
     1.0000   1.0000   1.0000   1.0000   1.0000   1.0000   1.0000   1.0000
     1.0000   1.0000   1.0000   1.0000   1.0000   1.0000   0.0000   0.0000
     0.0000   0.0000

          k = 0.1111-0.3136 0.0000 (338942 PWs)   bands (ev):

   -27.7011 -27.7011 -26.9176 -26.9176 -17.4945 -17.4945 -11.7562 -11.7562
    -9.5579  -9.5579  -8.8902  -8.8902  -8.1827  -8.1827  -6.2732  -6.2732
    -5.7991  -5.7991  -4.7676  -4.7676  -3.8528  -3.8528   2.9672   2.9672
     4.6133   4.6133

     occupation numbers 
     1.0000   1.0000   1.0000   1.0000   1.0000   1.0000   1.0000   1.0000
     1.0000   1.0000   1.0000   1.0000   1.0000   1.0000   1.0000   1.0000
     1.0000   1.0000   1.0000   1.0000   1.0000   1.0000   0.0000   0.0000
     0.0000   0.0000

          k = 0.1667 0.0000 0.0000 (339176 PWs)   bands (ev):

   -27.9985 -27.7394 -26.6493 -26.5358 -18.4647 -15.2058 -13.4685 -10.8518
   -10.1860 -10.0569 -10.0539  -8.5371  -8.2635  -7.6598  -7.3469  -6.0242
    -5.8912  -5.4388  -4.9184  -4.5708  -4.1927  -3.7630   1.3231   3.8933
     4.8912   5.5357

     occupation numbers 
     1.0000   1.0000   1.0000   1.0000   1.0000   1.0000   1.0000   1.0000
     1.0000   1.0000   1.0000   1.0000   1.0000   1.0000   1.0000   1.0000
     1.0000   1.0000   1.0000   1.0000   1.0000   1.0000   0.0000   0.0000
     0.0000   0.0000

          k = 0.1667 0.0348 0.0000 (339179 PWs)   bands (ev):

   -27.9916 -27.7345 -26.6570 -26.5432 -18.4498 -15.2693 -13.4165 -10.8489
   -10.1996 -10.0651 -10.0050  -8.5570  -8.2548  -7.6856  -7.3274  -6.0355
    -5.8942  -5.4251  -4.9094  -4.5717  -4.2025  -3.7827   1.3501   3.9369
     4.8887   5.5492

     occupation numbers 
     1.0000   1.0000   1.0000   1.0000   1.0000   1.0000   1.0000   1.0000
     1.0000   1.0000   1.0000   1.0000   1.0000   1.0000   1.0000   1.0000
     1.0000   1.0000   1.0000   1.0000   1.0000   1.0000   0.0000   0.0000
     0.0000   0.0000

          k = 0.1667 0.0697 0.0000 (339214 PWs)   bands (ev):

   -27.9714 -27.7200 -26.6795 -26.5648 -18.4053 -15.4390 -13.2799 -10.8445
   -10.2082 -10.0942  -9.8849  -8.6100  -8.2346  -7.7591  -7.2712  -6.0601
    -5.9020  -5.3975  -4.8863  -4.5722  -4.2322  -3.8361   1.4302   4.0627
     4.8795   5.5809

     occupation numbers 
     1.0000   1.0000   1.0000   1.0000   1.0000   1.0000   1.0000   1.0000
     1.0000   1.0000   1.0000   1.0000   1.0000   1.0000   1.0000   1.0000
     1.0000   1.0000   1.0000   1.0000   1.0000   1.0000   0.0000   0.0000
     0.0000   0.0000

          k = 0.1667 0.1045 0.0000 (339167 PWs)   bands (ev):

   -27.9385 -27.6972 -26.7148 -26.5994 -18.3313 -15.6749 -13.0942 -10.8529
   -10.1950 -10.1264  -9.7232  -8.6848  -8.2126  -7.8711  -7.1823  -6.0811
    -5.9115  -5.3846  -4.8608  -4.5643  -4.2834  -3.9070   1.5609   4.2532
     4.8576   5.5943

     occupation numbers 
     1.0000   1.0000   1.0000   1.0000   1.0000   1.0000   1.0000   1.0000
     1.0000   1.0000   1.0000   1.0000   1.0000   1.0000   1.0000   1.0000
     1.0000   1.0000   1.0000   1.0000   1.0000   1.0000   0.0000   0.0000
     0.0000   0.0000

          k = 0.1667 0.1394 0.0000 (339108 PWs)   bands (ev):

   -27.8944 -27.6686 -26.7595 -26.6448 -18.2284 -15.9454 -12.8845 -10.8963
   -10.1615 -10.1389  -9.5344  -8.7718  -8.1953  -8.0101  -7.0649  -6.0871
    -5.9188  -5.4120  -4.8488  -4.5360  -4.3591  -3.9734   1.7381   4.4437
     4.8415   5.5405

     occupation numbers 
     1.0000   1.0000   1.0000   1.0000   1.0000   1.0000   1.0000   1.0000
     1.0000   1.0000   1.0000   1.0000   1.0000   1.0000   1.0000   1.0000
     1.0000   1.0000   1.0000   1.0000   1.0000   1.0000   0.0000   0.0000
     0.0000   0.0000

          k = 0.1667 0.1742 0.0000 (339094 PWs)   bands (ev):

   -27.8414 -27.6379 -26.8085 -26.6981 -18.0974 -16.2304 -12.6638 -10.9918
   -10.1147 -10.1122  -9.3368  -8.8624  -8.1876  -8.1605  -6.9241  -6.0755
    -5.9208  -5.4923  -4.8575  -4.4817  -4.4587  -4.0215   1.9570   4.4155
     4.9887   5.4755

     occupation numbers 
     1.0000   1.0000   1.0000   1.0000   1.0000   1.0000   1.0000   1.0000
     1.0000   1.0000   1.0000   1.0000   1.0000   1.0000   1.0000   1.0000
     1.0000   1.0000   1.0000   1.0000   1.0000   1.0000   0.0000   0.0000
     0.0000   0.0000

          k = 0.1667 0.2091 0.0000 (339090 PWs)   bands (ev):

   -27.7825 -27.6108 -26.8546 -26.7553 -17.9392 -16.5170 -12.4375 -11.1382
   -10.0578 -10.0534  -9.1566  -8.9464  -8.2995  -8.1942  -6.7652  -6.0512
    -5.9162  -5.6207  -4.8783  -4.5723  -4.4090  -4.0550   2.2127   4.1687
     5.2305   5.5240

     occupation numbers 
     1.0000   1.0000   1.0000   1.0000   1.0000   1.0000   1.0000   1.0000
     1.0000   1.0000   1.0000   1.0000   1.0000   1.0000   1.0000   1.0000
     1.0000   1.0000   1.0000   1.0000   1.0000   1.0000   0.0000   0.0000
     0.0000   0.0000

          k = 0.1667 0.2439 0.0000 (339043 PWs)   bands (ev):

   -27.7221 -27.5948 -26.8892 -26.8114 -17.7551 -16.7971 -12.2083 -11.3219
    -9.9931  -9.9893  -9.0333  -9.0104  -8.3895  -8.2201  -6.5931  -6.0304
    -5.9075  -5.7744  -4.8951  -4.6856  -4.3291  -4.0868   2.4998   3.8437
     5.3348   5.4883

     occupation numbers 
     1.0000   1.0000   1.0000   1.0000   1.0000   1.0000   1.0000   1.0000
     1.0000   1.0000   1.0000   1.0000   1.0000   1.0000   1.0000   1.0000
     1.0000   1.0000   1.0000   1.0000   1.0000   1.0000   0.0000   0.0000
     0.0000   0.0000

          k = 0.1667 0.2788 0.0000 (339044 PWs)   bands (ev):

   -27.6662 -27.5974 -26.9033 -26.8597 -17.5465 -17.0647 -11.9784 -11.5294
    -9.9432  -9.9361  -9.0390  -9.0019  -8.3927  -8.2682  -6.4121  -6.0740
    -5.9009  -5.8850  -4.8915  -4.7843  -4.2513  -4.1278   2.8133   3.4953
     5.3817   5.4587

     occupation numbers 
     1.0000   1.0000   1.0000   1.0000   1.0000   1.0000   1.0000   1.0000
     1.0000   1.0000   1.0000   1.0000   1.0000   1.0000   1.0000   1.0000
     1.0000   1.0000   1.0000   1.0000   1.0000   1.0000   0.0000   0.0000
     0.0000   0.0000

          k = 0.1667-0.3136 0.0000 (339016 PWs)   bands (ev):

   -27.6222 -27.6222 -26.8927 -26.8927 -17.3156 -17.3156 -11.7505 -11.7505
    -9.9197  -9.9197  -9.0266  -9.0266  -8.3341  -8.3341  -6.2292  -6.2292
    -5.9006  -5.9006  -4.8554  -4.8554  -4.1827  -4.1827   3.1477   3.1477
     5.4224   5.4224

     occupation numbers 
     1.0000   1.0000   1.0000   1.0000   1.0000   1.0000   1.0000   1.0000
     1.0000   1.0000   1.0000   1.0000   1.0000   1.0000   1.0000   1.0000
     1.0000   1.0000   1.0000   1.0000   1.0000   1.0000   0.0000   0.0000
     0.0000   0.0000

          k = 0.2222 0.0000 0.0000 (339180 PWs)   bands (ev):

   -27.8653 -27.6224 -26.6594 -26.5476 -18.1984 -14.9499 -13.4535 -10.7346
   -10.6580 -10.1878 -10.0749  -8.7789  -8.7617  -7.7478  -7.2011  -6.2214
    -6.2161  -5.6456  -5.2523  -4.6727  -4.2690  -4.2415   1.6435   3.8187
     5.5377   6.0142

     occupation numbers 
     1.0000   1.0000   1.0000   1.0000   1.0000   1.0000   1.0000   1.0000
     1.0000   1.0000   1.0000   1.0000   1.0000   1.0000   1.0000   1.0000
     1.0000   1.0000   1.0000   1.0000   1.0000   1.0000   0.0000   0.0000
     0.0000   0.0000

          k = 0.2222 0.0348 0.0000 (339160 PWs)   bands (ev):

   -27.8590 -27.6179 -26.6660 -26.5541 -18.1838 -15.0170 -13.4011 -10.7312
   -10.6629 -10.2031 -10.0395  -8.8637  -8.6805  -7.7754  -7.1878  -6.2262
    -6.2125  -5.6210  -5.2376  -4.6718  -4.3159  -4.2298   1.6659   3.8595
     5.5318   6.0247

     occupation numbers 
     1.0000   1.0000   1.0000   1.0000   1.0000   1.0000   1.0000   1.0000
     1.0000   1.0000   1.0000   1.0000   1.0000   1.0000   1.0000   1.0000
     1.0000   1.0000   1.0000   1.0000   1.0000   1.0000   0.0000   0.0000
     0.0000   0.0000

          k = 0.2222 0.0697 0.0000 (339155 PWs)   bands (ev):

   -27.8405 -27.6048 -26.6855 -26.5730 -18.1400 -15.1932 -13.2673 -10.7188
   -10.6831 -10.2426  -9.9397  -8.9562  -8.5980  -7.8533  -7.1481  -6.2334
    -6.2028  -5.5604  -5.1965  -4.6693  -4.4080  -4.2378   1.7332   3.9779
     5.5090   6.0395

     occupation numbers 
     1.0000   1.0000   1.0000   1.0000   1.0000   1.0000   1.0000   1.0000
     1.0000   1.0000   1.0000   1.0000   1.0000   1.0000   1.0000   1.0000
     1.0000   1.0000   1.0000   1.0000   1.0000   1.0000   0.0000   0.0000
     0.0000   0.0000

          k = 0.2222 0.1045 0.0000 (339166 PWs)   bands (ev):

   -27.8103 -27.5842 -26.7160 -26.6034 -18.0673 -15.4340 -13.0910 -10.7355
   -10.6933 -10.2869  -9.7906  -9.0438  -8.5239  -7.9689  -7.0829  -6.2310
    -6.1883  -5.4941  -5.1379  -4.6640  -4.5274  -4.2663   1.8448   4.1602
     5.4494   6.0054

     occupation numbers 
     1.0000   1.0000   1.0000   1.0000   1.0000   1.0000   1.0000   1.0000
     1.0000   1.0000   1.0000   1.0000   1.0000   1.0000   1.0000   1.0000
     1.0000   1.0000   1.0000   1.0000   1.0000   1.0000   0.0000   0.0000
     0.0000   0.0000

          k = 0.2222 0.1394 0.0000 (339215 PWs)   bands (ev):

   -27.7700 -27.5583 -26.7547 -26.6434 -17.9662 -15.7067 -12.8969 -10.8389
   -10.6534 -10.3131  -9.6129  -9.1220  -8.4600  -8.1050  -6.9931  -6.2130
    -6.1695  -5.4580  -5.0759  -4.6570  -4.6524  -4.3040   1.9995   4.3738
     5.3212   5.9281

     occupation numbers 
     1.0000   1.0000   1.0000   1.0000   1.0000   1.0000   1.0000   1.0000
     1.0000   1.0000   1.0000   1.0000   1.0000   1.0000   1.0000   1.0000
     1.0000   1.0000   1.0000   1.0000   1.0000   1.0000   0.0000   0.0000
     0.0000   0.0000

          k = 0.2222 0.1742 0.0000 (339207 PWs)   bands (ev):

   -27.7214 -27.5308 -26.7969 -26.6905 -17.8374 -15.9917 -12.6954 -10.9937
   -10.6005 -10.3165  -9.4316  -9.1859  -8.4086  -8.2419  -6.8802  -6.1812
    -6.1454  -5.4866  -5.0278  -4.7745  -4.6269  -4.3380   2.1959   4.5129
     5.1960   5.8983

     occupation numbers 
     1.0000   1.0000   1.0000   1.0000   1.0000   1.0000   1.0000   1.0000
     1.0000   1.0000   1.0000   1.0000   1.0000   1.0000   1.0000   1.0000
     1.0000   1.0000   1.0000   1.0000   1.0000   1.0000   0.0000   0.0000
     0.0000   0.0000

          k = 0.2222 0.2091 0.0000 (339161 PWs)   bands (ev):

   -27.6675 -27.5067 -26.8366 -26.7413 -17.6818 -16.2769 -12.4891 -11.1847
   -10.5384 -10.3096  -9.2782  -9.2297  -8.3732  -8.3553  -6.7451  -6.1438
    -6.1149  -5.5921  -5.0056  -4.8669  -4.5824  -4.3605   2.4319   4.3749
     5.3012   5.9334

     occupation numbers 
     1.0000   1.0000   1.0000   1.0000   1.0000   1.0000   1.0000   1.0000
     1.0000   1.0000   1.0000   1.0000   1.0000   1.0000   1.0000   1.0000
     1.0000   1.0000   1.0000   1.0000   1.0000   1.0000   0.0000   0.0000
     0.0000   0.0000

          k = 0.2222 0.2439 0.0000 (339100 PWs)   bands (ev):

   -27.6122 -27.4931 -26.8656 -26.7913 -17.5005 -16.5547 -12.2780 -11.3963
   -10.4725 -10.3077  -9.2471  -9.1871  -8.4178  -8.3575  -6.5896  -6.1162
    -6.0789  -5.7504  -5.0063  -4.9370  -4.5248  -4.3746   2.7048   4.0572
     5.5447   6.1341

     occupation numbers 
     1.0000   1.0000   1.0000   1.0000   1.0000   1.0000   1.0000   1.0000
     1.0000   1.0000   1.0000   1.0000   1.0000   1.0000   1.0000   1.0000
     1.0000   1.0000   1.0000   1.0000   1.0000   1.0000   0.0000   0.0000
     0.0000   0.0000

          k = 0.2222 0.2788 0.0000 (339103 PWs)   bands (ev):

   -27.5608 -27.4965 -26.8765 -26.8350 -17.2951 -16.8194 -12.0617 -11.6175
   -10.4096 -10.3222  -9.2352  -9.1718  -8.4199  -8.3642  -6.4177  -6.1307
    -6.0407  -5.9103  -5.0140  -4.9863  -4.4676  -4.3917   3.0110   3.6997
     5.7560   6.0250

     occupation numbers 
     1.0000   1.0000   1.0000   1.0000   1.0000   1.0000   1.0000   1.0000
     1.0000   1.0000   1.0000   1.0000   1.0000   1.0000   1.0000   1.0000
     1.0000   1.0000   1.0000   1.0000   1.0000   1.0000   0.0000   0.0000
     0.0000   0.0000

          k = 0.2222-0.3136 0.0000 (339088 PWs)   bands (ev):

   -27.5201 -27.5201 -26.8655 -26.8655 -17.0672 -17.0672 -11.8408 -11.8408
   -10.3572 -10.3572  -9.2018  -9.2018  -8.3904  -8.3904  -6.2451  -6.2451
    -5.9985  -5.9985  -5.0113  -5.0113  -4.4217  -4.4217   3.3455   3.3455
     5.9043   5.9043

     occupation numbers 
     1.0000   1.0000   1.0000   1.0000   1.0000   1.0000   1.0000   1.0000
     1.0000   1.0000   1.0000   1.0000   1.0000   1.0000   1.0000   1.0000
     1.0000   1.0000   1.0000   1.0000   1.0000   1.0000   0.0000   0.0000
     0.0000   0.0000

          k = 0.2778 0.0000 0.0000 (339192 PWs)   bands (ev):

   -27.7076 -27.4839 -26.6841 -26.5727 -17.8585 -14.6265 -13.5773 -11.2656
   -10.4899 -10.4409  -9.9517  -9.1429  -9.0864  -7.8937  -7.0586  -6.4851
    -6.3371  -5.9406  -5.5804  -4.7584  -4.6509  -4.4100   2.0016   3.8645
     5.8601   6.8706

     occupation numbers 
     1.0000   1.0000   1.0000   1.0000   1.0000   1.0000   1.0000   1.0000
     1.0000   1.0000   1.0000   1.0000   1.0000   1.0000   1.0000   1.0000
     1.0000   1.0000   1.0000   1.0000   1.0000   1.0000   0.0000   0.0000
     0.0000   0.0000

          k = 0.2778 0.0348 0.0000 (339204 PWs)   bands (ev):

   -27.7021 -27.4800 -26.6895 -26.5781 -17.8443 -14.7005 -13.5254 -11.2498
   -10.5483 -10.4222  -9.9259  -9.2178  -8.9975  -7.9235  -7.0488  -6.4793
    -6.3392  -5.9079  -5.5590  -4.7541  -4.6964  -4.3996   2.0201   3.8991
     5.8430   6.5966

     occupation numbers 
     1.0000   1.0000   1.0000   1.0000   1.0000   1.0000   1.0000   1.0000
     1.0000   1.0000   1.0000   1.0000   1.0000   1.0000   1.0000   1.0000
     1.0000   1.0000   1.0000   1.0000   1.0000   1.0000   0.0000   0.0000
     0.0000   0.0000

          k = 0.2778 0.0697 0.0000 (339139 PWs)   bands (ev):

   -27.6857 -27.4687 -26.7052 -26.5938 -17.8015 -14.8875 -13.4013 -11.2050
   -10.6693 -10.4156  -9.8517  -9.2961  -8.8798  -8.0042  -7.0210  -6.4629
    -6.3382  -5.8225  -5.5000  -4.8069  -4.7418  -4.3903   2.0760   3.9998
     5.7853   6.5438

     occupation numbers 
     1.0000   1.0000   1.0000   1.0000   1.0000   1.0000   1.0000   1.0000
     1.0000   1.0000   1.0000   1.0000   1.0000   1.0000   1.0000   1.0000
     1.0000   1.0000   1.0000   1.0000   1.0000   1.0000   0.0000   0.0000
     0.0000   0.0000

          k = 0.2778 0.1045 0.0000 (339131 PWs)   bands (ev):

   -27.6592 -27.4510 -26.7298 -26.6190 -17.7306 -15.1343 -13.2488 -11.1379
   -10.8349 -10.4253  -9.7394  -9.3560  -8.7624  -8.1158  -6.9770  -6.4376
    -6.3249  -5.7095  -5.4163  -4.9514  -4.7231  -4.4016   2.1701   4.1558
     5.6692   6.4636

     occupation numbers 
     1.0000   1.0000   1.0000   1.0000   1.0000   1.0000   1.0000   1.0000
     1.0000   1.0000   1.0000   1.0000   1.0000   1.0000   1.0000   1.0000
     1.0000   1.0000   1.0000   1.0000   1.0000   1.0000   0.0000   0.0000
     0.0000   0.0000

          k = 0.2778 0.1394 0.0000 (339175 PWs)   bands (ev):

   -27.6237 -27.4289 -26.7610 -26.6523 -17.6319 -15.4083 -13.0876 -11.0566
   -11.0346 -10.4443  -9.6075  -9.4001  -8.6526  -8.2342  -6.9163  -6.4039
    -6.2987  -5.5983  -5.3255  -5.1077  -4.6992  -4.4335   2.3036   4.3444
     5.4847   6.4073

     occupation numbers 
     1.0000   1.0000   1.0000   1.0000   1.0000   1.0000   1.0000   1.0000
     1.0000   1.0000   1.0000   1.0000   1.0000   1.0000   1.0000   1.0000
     1.0000   1.0000   1.0000   1.0000   1.0000   1.0000   0.0000   0.0000
     0.0000   0.0000

          k = 0.2778 0.1742 0.0000 (339149 PWs)   bands (ev):

   -27.5810 -27.4056 -26.7948 -26.6917 -17.5060 -15.6918 -12.9216 -11.2560
   -10.9681 -10.4684  -9.4830  -9.4309  -8.5559  -8.3354  -6.8371  -6.3604
    -6.2667  -5.5366  -5.2459  -5.2372  -4.6703  -4.4751   2.4776   4.5079
     5.2779   6.3766

     occupation numbers 
     1.0000   1.0000   1.0000   1.0000   1.0000   1.0000   1.0000   1.0000
     1.0000   1.0000   1.0000   1.0000   1.0000   1.0000   1.0000   1.0000
     1.0000   1.0000   1.0000   1.0000   1.0000   1.0000   0.0000   0.0000
     0.0000   0.0000

          k = 0.2778 0.2091 0.0000 (339201 PWs)   bands (ev):

   -27.5336 -27.3858 -26.8261 -26.7346 -17.3539 -15.9741 -12.7492 -11.4877
   -10.8779 -10.4974  -9.4485  -9.3961  -8.4772  -8.3976  -6.7380  -6.3044
    -6.2430  -5.6015  -5.2691  -5.1923  -4.6365  -4.5114   2.6924   4.4899
     5.2106   6.1937

     occupation numbers 
     1.0000   1.0000   1.0000   1.0000   1.0000   1.0000   1.0000   1.0000
     1.0000   1.0000   1.0000   1.0000   1.0000   1.0000   1.0000   1.0000
     1.0000   1.0000   1.0000   1.0000   1.0000   1.0000   0.0000   0.0000
     0.0000   0.0000

          k = 0.2778 0.2439 0.0000 (339223 PWs)   bands (ev):

   -27.4849 -27.3755 -26.8481 -26.7773 -17.1765 -16.2480 -12.5672 -11.7209
   -10.7904 -10.5336  -9.4507  -9.3640  -8.4212  -8.4134  -6.6214  -6.2452
    -6.2324  -5.7458  -5.2454  -5.1705  -4.6008  -4.5325   2.9471   4.2362
     5.3414   6.0208

     occupation numbers 
     1.0000   1.0000   1.0000   1.0000   1.0000   1.0000   1.0000   1.0000
     1.0000   1.0000   1.0000   1.0000   1.0000   1.0000   1.0000   1.0000
     1.0000   1.0000   1.0000   1.0000   1.0000   1.0000   0.0000   0.0000
     0.0000   0.0000

          k = 0.2778 0.2788 0.0000 (339245 PWs)   bands (ev):

   -27.4393 -27.3804 -26.8546 -26.8152 -16.9752 -16.5085 -12.3736 -11.9488
   -10.7096 -10.5801  -9.4362  -9.3766  -8.4002  -8.3909  -6.4956  -6.2891
    -6.1417  -5.8963  -5.2199  -5.1755  -4.5704  -4.5416   3.2388   3.9023
     5.5208   5.8556

     occupation numbers 
     1.0000   1.0000   1.0000   1.0000   1.0000   1.0000   1.0000   1.0000
     1.0000   1.0000   1.0000   1.0000   1.0000   1.0000   1.0000   1.0000
     1.0000   1.0000   1.0000   1.0000   1.0000   1.0000   0.0000   0.0000
     0.0000   0.0000

          k = 0.2778-0.3136 0.0000 (339252 PWs)   bands (ev):

   -27.4026 -27.4026 -26.8427 -26.8427 -16.7518 -16.7518 -12.1672 -12.1672
   -10.6388 -10.6388  -9.4078  -9.4078  -8.3863  -8.3863  -6.3775  -6.3775
    -6.0301  -6.0301  -5.1955  -5.1955  -4.5510  -4.5510   3.5612   3.5612
     5.6923   5.6923

     occupation numbers 
     1.0000   1.0000   1.0000   1.0000   1.0000   1.0000   1.0000   1.0000
     1.0000   1.0000   1.0000   1.0000   1.0000   1.0000   1.0000   1.0000
     1.0000   1.0000   1.0000   1.0000   1.0000   1.0000   0.0000   0.0000
     0.0000   0.0000

          k = 0.3333 0.0000 0.0000 (339220 PWs)   bands (ev):

   -27.5349 -27.3323 -26.7299 -26.6165 -17.4470 -14.2395 -13.9475 -11.4991
   -10.9806 -10.2688  -9.8298  -9.3684  -9.3493  -8.0925  -7.0380  -6.5413
    -6.3830  -6.2864  -5.8601  -4.9902  -4.8382  -4.5842   2.3900   4.0392
     5.5442   6.9372

     occupation numbers 
     1.0000   1.0000   1.0000   1.0000   1.0000   1.0000   1.0000   1.0000
     1.0000   1.0000   1.0000   1.0000   1.0000   1.0000   1.0000   1.0000
     1.0000   1.0000   1.0000   1.0000   1.0000   1.0000   0.0000   0.0000
     0.0000   0.0000

          k = 0.3333 0.0348 0.0000 (339170 PWs)   bands (ev):

   -27.5303 -27.3292 -26.7339 -26.6205 -17.4332 -14.3438 -13.8760 -11.4717
   -11.0289 -10.2756  -9.8120  -9.4677  -9.2208  -8.1213  -7.0165  -6.5571
    -6.3901  -6.2459  -5.8260  -5.0344  -4.8304  -4.5675   2.4053   4.0645
     5.5327   6.9335

     occupation numbers 
     1.0000   1.0000   1.0000   1.0000   1.0000   1.0000   1.0000   1.0000
     1.0000   1.0000   1.0000   1.0000   1.0000   1.0000   1.0000   1.0000
     1.0000   1.0000   1.0000   1.0000   1.0000   1.0000   0.0000   0.0000
     0.0000   0.0000

          k = 0.3333 0.0697 0.0000 (339199 PWs)   bands (ev):

   -27.5167 -27.3201 -26.7452 -26.6325 -17.3918 -14.5518 -13.7584 -11.3970
   -11.1609 -10.2993  -9.7618  -9.5418  -9.0660  -8.1951  -6.9617  -6.5905
    -6.3904  -6.1508  -5.7384  -5.1422  -4.8081  -4.5391   2.4518   4.1384
     5.4963   6.9215

     occupation numbers 
     1.0000   1.0000   1.0000   1.0000   1.0000   1.0000   1.0000   1.0000
     1.0000   1.0000   1.0000   1.0000   1.0000   1.0000   1.0000   1.0000
     1.0000   1.0000   1.0000   1.0000   1.0000   1.0000   0.0000   0.0000
     0.0000   0.0000

          k = 0.3333 0.1045 0.0000 (339214 PWs)   bands (ev):

   -27.4947 -27.3061 -26.7631 -26.6518 -17.3231 -14.7995 -13.6409 -11.3508
   -11.2923 -10.3413  -9.6902  -9.5874  -8.9074  -8.2861  -6.8945  -6.6141
    -6.3771  -6.0236  -5.6256  -5.2778  -4.7744  -4.5261   2.5314   4.2536
     5.4295   6.5325

     occupation numbers 
     1.0000   1.0000   1.0000   1.0000   1.0000   1.0000   1.0000   1.0000
     1.0000   1.0000   1.0000   1.0000   1.0000   1.0000   1.0000   1.0000
     1.0000   1.0000   1.0000   1.0000   1.0000   1.0000   0.0000   0.0000
     0.0000   0.0000

          k = 0.3333 0.1394 0.0000 (339211 PWs)   bands (ev):

   -27.4653 -27.2889 -26.7854 -26.6775 -17.2275 -15.0672 -13.5219 -11.5744
   -11.1759 -10.3953  -9.6163  -9.6154  -8.7566  -8.3652  -6.8371  -6.6006
    -6.3600  -5.8797  -5.5119  -5.4172  -4.7340  -4.5368   2.6465   4.3935
     5.3284   6.2916

     occupation numbers 
     1.0000   1.0000   1.0000   1.0000   1.0000   1.0000   1.0000   1.0000
     1.0000   1.0000   1.0000   1.0000   1.0000   1.0000   1.0000   1.0000
     1.0000   1.0000   1.0000   1.0000   1.0000   1.0000   0.0000   0.0000
     0.0000   0.0000

          k = 0.3333 0.1742 0.0000 (339169 PWs)   bands (ev):

   -27.4300 -27.2712 -26.8094 -26.7081 -17.1055 -15.3426 -13.3950 -11.8139
   -11.0605 -10.4537  -9.6342  -9.5638  -8.6225  -8.4095  -6.7991  -6.5354
    -6.3548  -5.7360  -5.5430  -5.4153  -4.6925  -4.5660   2.7996   4.5185
     5.2078   6.0724

     occupation numbers 
     1.0000   1.0000   1.0000   1.0000   1.0000   1.0000   1.0000   1.0000
     1.0000   1.0000   1.0000   1.0000   1.0000   1.0000   1.0000   1.0000
     1.0000   1.0000   1.0000   1.0000   1.0000   1.0000   0.0000   0.0000
     0.0000   0.0000

          k = 0.3333 0.2091 0.0000 (339238 PWs)   bands (ev):

   -27.3907 -27.2571 -26.8306 -26.7418 -16.9579 -15.6169 -13.2551 -12.0568
   -10.9529 -10.5121  -9.6464  -9.5478  -8.5115  -8.4124  -6.7655  -6.4288
    -6.3773  -5.6600  -5.5963  -5.3482  -4.6559  -4.5998   2.9924   4.5318
     5.1442   5.8793

     occupation numbers 
     1.0000   1.0000   1.0000   1.0000   1.0000   1.0000   1.0000   1.0000
     1.0000   1.0000   1.0000   1.0000   1.0000   1.0000   1.0000   1.0000
     1.0000   1.0000   1.0000   1.0000   1.0000   1.0000   0.0000   0.0000
     0.0000   0.0000

          k = 0.3333 0.2439 0.0000 (339191 PWs)   bands (ev):

   -27.3500 -27.2514 -26.8439 -26.7760 -16.7858 -15.8832 -13.0988 -12.2943
   -10.8561 -10.5701  -9.6506  -9.5638  -8.4284  -8.3885  -6.7213  -6.4318
    -6.2955  -5.7531  -5.4951  -5.3165  -4.6301  -4.6221   3.2245   4.3597
     5.2054   5.7133

     occupation numbers 
     1.0000   1.0000   1.0000   1.0000   1.0000   1.0000   1.0000   1.0000
     1.0000   1.0000   1.0000   1.0000   1.0000   1.0000   1.0000   1.0000
     1.0000   1.0000   1.0000   1.0000   1.0000   1.0000   0.0000   0.0000
     0.0000   0.0000

          k = 0.3333 0.2788 0.0000 (339255 PWs)   bands (ev):

   -27.3116 -27.2586 -26.8446 -26.8073 -16.5903 -16.1365 -12.9243 -12.5204
   -10.7706 -10.6302  -9.6439  -9.5946  -8.3760  -8.3628  -6.6616  -6.5075
    -6.1472  -5.8639  -5.4136  -5.3201  -4.6262  -4.6188   3.4918   4.0859
     5.3205   5.5705

     occupation numbers 
     1.0000   1.0000   1.0000   1.0000   1.0000   1.0000   1.0000   1.0000
     1.0000   1.0000   1.0000   1.0000   1.0000   1.0000   1.0000   1.0000
     1.0000   1.0000   1.0000   1.0000   1.0000   1.0000   0.0000   0.0000
     0.0000   0.0000

          k = 0.3333-0.3136 0.0000 (339306 PWs)   bands (ev):

   -27.2796 -27.2796 -26.8316 -26.8316 -16.3732 -16.3732 -12.7312 -12.7312
   -10.6960 -10.6960  -9.6244  -9.6244  -8.3552  -8.3552  -6.5882  -6.5882
    -5.9980  -5.9980  -5.3544  -5.3544  -4.6205  -4.6205   3.7850   3.7850
     5.4427   5.4427

     occupation numbers 
     1.0000   1.0000   1.0000   1.0000   1.0000   1.0000   1.0000   1.0000
     1.0000   1.0000   1.0000   1.0000   1.0000   1.0000   1.0000   1.0000
     1.0000   1.0000   1.0000   1.0000   1.0000   1.0000   0.0000   0.0000
     0.0000   0.0000

          k = 0.3889 0.0000 0.0000 (339240 PWs)   bands (ev):

   -27.3578 -27.1767 -26.8021 -26.6830 -16.9663 -14.5221 -13.7939 -11.5665
   -11.4518 -10.3244  -9.7220  -9.4510  -9.4148  -8.3367  -7.1293  -6.6228
    -6.3846  -6.3674  -6.0746  -5.2893  -4.9046  -4.7513   2.8109   4.3388
     4.9545   6.5693

     occupation numbers 
     1.0000   1.0000   1.0000   1.0000   1.0000   1.0000   1.0000   1.0000
     1.0000   1.0000   1.0000   1.0000   1.0000   1.0000   1.0000   1.0000
     1.0000   1.0000   1.0000   1.0000   1.0000   1.0000   0.0000   0.0000
     0.0000   0.0000

          k = 0.3889 0.0348 0.0000 (339283 PWs)   bands (ev):

   -27.3543 -27.1746 -26.8044 -26.6857 -16.9531 -14.5280 -13.8286 -11.6200
   -11.4173 -10.3169  -9.7138  -9.5714  -9.2735  -8.3574  -7.0983  -6.5947
    -6.4286  -6.3828  -6.0073  -5.3255  -4.8932  -4.7292   2.8238   4.3521
     4.9543   6.4877

     occupation numbers 
     1.0000   1.0000   1.0000   1.0000   1.0000   1.0000   1.0000   1.0000
     1.0000   1.0000   1.0000   1.0000   1.0000   1.0000   1.0000   1.0000
     1.0000   1.0000   1.0000   1.0000   1.0000   1.0000   0.0000   0.0000
     0.0000   0.0000

          k = 0.3889 0.0697 0.0000 (339212 PWs)   bands (ev):

   -27.3441 -27.1684 -26.8111 -26.6937 -16.9135 -14.5560 -13.9102 -11.7652
   -11.3262 -10.3075  -9.6929  -9.6791  -9.1035  -8.4060  -7.0146  -6.5393
    -6.5155  -6.3787  -5.8793  -5.4103  -4.8610  -4.6835   2.8631   4.3919
     4.9526   6.3022

     occupation numbers 
     1.0000   1.0000   1.0000   1.0000   1.0000   1.0000   1.0000   1.0000
     1.0000   1.0000   1.0000   1.0000   1.0000   1.0000   1.0000   1.0000
     1.0000   1.0000   1.0000   1.0000   1.0000   1.0000   0.0000   0.0000
     0.0000   0.0000

          k = 0.3889 0.1045 0.0000 (339216 PWs)   bands (ev):

   -27.3276 -27.1591 -26.8214 -26.7067 -16.8477 -14.6355 -13.9823 -11.9702
   -11.2053 -10.3187  -9.7527  -9.6710  -8.9307  -8.4534  -6.8962  -6.6465
    -6.4224  -6.3533  -5.7458  -5.5041  -4.8134  -4.6443   2.9309   4.4549
     4.9472   6.0875

     occupation numbers 
     1.0000   1.0000   1.0000   1.0000   1.0000   1.0000   1.0000   1.0000
     1.0000   1.0000   1.0000   1.0000   1.0000   1.0000   1.0000   1.0000
     1.0000   1.0000   1.0000   1.0000   1.0000   1.0000   0.0000   0.0000
     0.0000   0.0000

          k = 0.3889 0.1394 0.0000 (339267 PWs)   bands (ev):

   -27.3056 -27.1480 -26.8339 -26.7240 -16.7561 -14.7891 -13.9952 -12.2074
   -11.0791 -10.3571  -9.7953  -9.6635  -8.7657  -8.4728  -6.7601  -6.7322
    -6.4307  -6.2170  -5.6252  -5.5789  -4.7589  -4.6268   3.0300   4.5268
     4.9426   5.8796

     occupation numbers 
     1.0000   1.0000   1.0000   1.0000   1.0000   1.0000   1.0000   1.0000
     1.0000   1.0000   1.0000   1.0000   1.0000   1.0000   1.0000   1.0000
     1.0000   1.0000   1.0000   1.0000   1.0000   1.0000   0.0000   0.0000
     0.0000   0.0000

          k = 0.3889 0.1742 0.0000 (339226 PWs)   bands (ev):

   -27.2791 -27.1376 -26.8464 -26.7450 -16.6393 -14.9995 -13.9459 -12.4571
   -10.9625 -10.4128  -9.8184  -9.6797  -8.6183  -8.4547  -6.8022  -6.6011
    -6.4846  -6.0492  -5.6243  -5.5277  -4.7074  -4.6321   3.1632   4.5672
     4.9619   5.6947

     occupation numbers 
     1.0000   1.0000   1.0000   1.0000   1.0000   1.0000   1.0000   1.0000
     1.0000   1.0000   1.0000   1.0000   1.0000   1.0000   1.0000   1.0000
     1.0000   1.0000   1.0000   1.0000   1.0000   1.0000   0.0000   0.0000
     0.0000   0.0000

          k = 0.3889 0.2091 0.0000 (339216 PWs)   bands (ev):

   -27.2495 -27.1310 -26.8557 -26.7686 -16.4980 -15.2362 -13.8507 -12.7066
   -10.8615 -10.4734  -9.8317  -9.7158  -8.4959  -8.4100  -6.8407  -6.5622
    -6.4349  -5.8864  -5.6497  -5.4610  -4.6686  -4.6510   3.3314   4.5262
     5.0291   5.5407

     occupation numbers 
     1.0000   1.0000   1.0000   1.0000   1.0000   1.0000   1.0000   1.0000
     1.0000   1.0000   1.0000   1.0000   1.0000   1.0000   1.0000   1.0000
     1.0000   1.0000   1.0000   1.0000   1.0000   1.0000   0.0000   0.0000
     0.0000   0.0000

          k = 0.3889 0.2439 0.0000 (339248 PWs)   bands (ev):

   -27.2185 -27.1319 -26.8585 -26.7933 -16.3332 -15.4788 -13.7210 -12.9471
   -10.7767 -10.5322  -9.8383  -9.7591  -8.4035  -8.3605  -6.8515  -6.6481
    -6.2607  -5.7757  -5.6520  -5.4306  -4.6679  -4.6486   3.5320   4.4015
     5.1183   5.4203

     occupation numbers 
     1.0000   1.0000   1.0000   1.0000   1.0000   1.0000   1.0000   1.0000
     1.0000   1.0000   1.0000   1.0000   1.0000   1.0000   1.0000   1.0000
     1.0000   1.0000   1.0000   1.0000   1.0000   1.0000   0.0000   0.0000
     0.0000   0.0000

          k = 0.3889 0.2788 0.0000 (339254 PWs)   bands (ev):

   -27.1885 -27.1424 -26.8524 -26.8172 -16.1464 -15.7156 -13.5626 -13.1726
   -10.7057 -10.5883  -9.8368  -9.7975  -8.3441  -8.3260  -6.8349  -6.7282
    -6.0879  -5.8137  -5.5707  -5.4396  -4.6704  -4.6479   3.7574   4.2156
     5.1961   5.3302

     occupation numbers 
     1.0000   1.0000   1.0000   1.0000   1.0000   1.0000   1.0000   1.0000
     1.0000   1.0000   1.0000   1.0000   1.0000   1.0000   1.0000   1.0000
     1.0000   1.0000   1.0000   1.0000   1.0000   1.0000   0.0000   0.0000
     0.0000   0.0000

          k = 0.3889-0.3136 0.0000 (339342 PWs)   bands (ev):

   -27.1621 -27.1621 -26.8379 -26.8379 -15.9395 -15.9395 -13.3788 -13.3788
   -10.6445 -10.6445  -9.8239  -9.8239  -8.3187  -8.3187  -6.7926  -6.7926
    -5.9320  -5.9320  -5.4879  -5.4879  -4.6596  -4.6596   3.9925   3.9925
     5.2611   5.2611

     occupation numbers 
     1.0000   1.0000   1.0000   1.0000   1.0000   1.0000   1.0000   1.0000
     1.0000   1.0000   1.0000   1.0000   1.0000   1.0000   1.0000   1.0000
     1.0000   1.0000   1.0000   1.0000   1.0000   1.0000   0.0000   0.0000
     0.0000   0.0000

          k = 0.4444 0.0000 0.0000 (339270 PWs)   bands (ev):

   -27.1873 -27.0266 -26.9034 -26.7746 -16.4205 -15.1723 -13.2953 -12.1685
   -11.2401 -10.6112  -9.6359  -9.5141  -9.2042  -8.6156  -7.1616  -6.8997
    -6.3601  -6.2214  -6.1202  -5.5730  -4.9440  -4.8758   3.2728   4.3492
     4.7535   5.8826

     occupation numbers 
[...]
     1.0000   1.0000   1.0000   1.0000   1.0000   1.0000   1.0000   1.0000
     1.0000   1.0000   1.0000   1.0000   1.0000   1.0000   0.0000   0.0000
     0.0000   0.0000

          k = 0.4444 0.2091 0.0000 (339258 PWs)   bands (ev):

   -27.1214 -27.0247 -26.8985 -26.8180 -15.9824 -15.0471 -14.2130 -13.3417
   -10.7075 -10.4675  -9.9582  -9.8665  -8.4594  -8.4101  -6.8921  -6.7453
    -6.3590  -6.0783  -5.6421  -5.5431  -4.6784  -4.6757   3.7035   4.3997
     4.9438   5.2475

     occupation numbers 
     1.0000   1.0000   1.0000   1.0000   1.0000   1.0000   1.0000   1.0000
     1.0000   1.0000   1.0000   1.0000   1.0000   1.0000   1.0000   1.0000
     1.0000   1.0000   1.0000   1.0000   1.0000   1.0000   0.0000   0.0000
     0.0000   0.0000

          k = 0.4444 0.2439 0.0000 (339226 PWs)   bands (ev):

   -27.1022 -27.0343 -26.8889 -26.8321 -15.8304 -15.1428 -14.2247 -13.5807
   -10.6500 -10.5011  -9.9762  -9.9188  -8.3704  -8.3440  -6.9344  -6.8293
    -6.1703  -5.9000  -5.6546  -5.5223  -4.6827  -4.6651   3.8536   4.3408
     5.0540   5.1945

     occupation numbers 
     1.0000   1.0000   1.0000   1.0000   1.0000   1.0000   1.0000   1.0000
     1.0000   1.0000   1.0000   1.0000   1.0000   1.0000   1.0000   1.0000
     1.0000   1.0000   1.0000   1.0000   1.0000   1.0000   0.0000   0.0000
     0.0000   0.0000

          k = 0.4444 0.2788 0.0000 (339219 PWs)   bands (ev):

   -27.0829 -27.0478 -26.8764 -26.8470 -15.6612 -15.2998 -14.1386 -13.7993
   -10.6066 -10.5364  -9.9819  -9.9554  -8.3136  -8.3019  -6.9490  -6.8944
    -5.9927  -5.7775  -5.6818  -5.5432  -4.6858  -4.6687   4.0052   4.2551
     5.1340   5.1743

     occupation numbers 
     1.0000   1.0000   1.0000   1.0000   1.0000   1.0000   1.0000   1.0000
     1.0000   1.0000   1.0000   1.0000   1.0000   1.0000   1.0000   1.0000
     1.0000   1.0000   1.0000   1.0000   1.0000   1.0000   0.0000   0.0000
     0.0000   0.0000

          k = 0.4444-0.3136 0.0000 (339264 PWs)   bands (ev):

   -27.0644 -27.0644 -26.8620 -26.8620 -15.4805 -15.4805 -13.9893 -13.9893
   -10.5707 -10.5707  -9.9757  -9.9757  -8.2909  -8.2909  -6.9353  -6.9353
    -5.8450  -5.8450  -5.6082  -5.6082  -4.6793  -4.6793   4.1425   4.1425
     5.1663   5.1663

     occupation numbers 
     1.0000   1.0000   1.0000   1.0000   1.0000   1.0000   1.0000   1.0000
     1.0000   1.0000   1.0000   1.0000   1.0000   1.0000   1.0000   1.0000
     1.0000   1.0000   1.0000   1.0000   1.0000   1.0000   0.0000   0.0000
     0.0000   0.0000

          k =-0.5000 0.0000 0.0000 (339206 PWs)   bands (ev):

   -27.0333 -27.0333 -26.8904 -26.8904 -15.8172 -15.8172 -12.7504 -12.7504
   -10.9431 -10.9431  -9.5700  -9.5700  -8.9138  -8.9138  -7.0852  -7.0852
    -6.3106  -6.3106  -5.8507  -5.8507  -4.9394  -4.9394   3.7845   3.7845
     5.2720   5.2720

     occupation numbers 
     1.0000   1.0000   1.0000   1.0000   1.0000   1.0000   1.0000   1.0000
     1.0000   1.0000   1.0000   1.0000   1.0000   1.0000   1.0000   1.0000
     1.0000   1.0000   1.0000   1.0000   1.0000   1.0000   0.0000   0.0000
     0.0000   0.0000

          k =-0.5000 0.0348 0.0000 (339290 PWs)   bands (ev):

   -27.0328 -27.0328 -26.8902 -26.8902 -15.8060 -15.8060 -12.8071 -12.8071
   -10.9108 -10.9108  -9.5921  -9.5921  -8.8931  -8.8931  -7.0536  -7.0536
    -6.3414  -6.3414  -5.8360  -5.8360  -4.9199  -4.9199   3.7933   3.7933
     5.2536   5.2536

     occupation numbers 
     1.0000   1.0000   1.0000   1.0000   1.0000   1.0000   1.0000   1.0000
     1.0000   1.0000   1.0000   1.0000   1.0000   1.0000   1.0000   1.0000
     1.0000   1.0000   1.0000   1.0000   1.0000   1.0000   0.0000   0.0000
     0.0000   0.0000

          k =-0.5000 0.0697 0.0000 (339286 PWs)   bands (ev):

   -27.0315 -27.0315 -26.8895 -26.8895 -15.7725 -15.7725 -12.9598 -12.9598
   -10.8306 -10.8306  -9.6518  -9.6518  -8.8340  -8.8340  -6.9643  -6.9643
    -6.4203  -6.4203  -5.7982  -5.7982  -4.8692  -4.8692   3.8200   3.8200
     5.2049   5.2049

     occupation numbers 
     1.0000   1.0000   1.0000   1.0000   1.0000   1.0000   1.0000   1.0000
     1.0000   1.0000   1.0000   1.0000   1.0000   1.0000   1.0000   1.0000
     1.0000   1.0000   1.0000   1.0000   1.0000   1.0000   0.0000   0.0000
     0.0000   0.0000

          k =-0.5000 0.1045 0.0000 (339268 PWs)   bands (ev):

   -27.0295 -27.0295 -26.8885 -26.8885 -15.7173 -15.7173 -13.1733 -13.1733
   -10.7355 -10.7355  -9.7337  -9.7337  -8.7450  -8.7450  -6.8339  -6.8339
    -6.5190  -6.5190  -5.7474  -5.7474  -4.8054  -4.8054   3.8657   3.8657
     5.1410   5.1410

     occupation numbers 
     1.0000   1.0000   1.0000   1.0000   1.0000   1.0000   1.0000   1.0000
     1.0000   1.0000   1.0000   1.0000   1.0000   1.0000   1.0000   1.0000
     1.0000   1.0000   1.0000   1.0000   1.0000   1.0000   0.0000   0.0000
     0.0000   0.0000

          k =-0.5000 0.1394 0.0000 (339226 PWs)   bands (ev):

   -27.0270 -27.0270 -26.8872 -26.8872 -15.6416 -15.6416 -13.4162 -13.4162
   -10.6514 -10.6514  -9.8214  -9.8214  -8.6379  -8.6379  -6.7261  -6.7261
    -6.5683  -6.5683  -5.6914  -5.6914  -4.7462  -4.7462   3.9297   3.9297
     5.0802   5.0802

     occupation numbers 
     1.0000   1.0000   1.0000   1.0000   1.0000   1.0000   1.0000   1.0000
     1.0000   1.0000   1.0000   1.0000   1.0000   1.0000   1.0000   1.0000
     1.0000   1.0000   1.0000   1.0000   1.0000   1.0000   0.0000   0.0000
     0.0000   0.0000

          k =-0.5000 0.1742 0.0000 (339230 PWs)   bands (ev):

   -27.0244 -27.0244 -26.8859 -26.8859 -15.5476 -15.5476 -13.6657 -13.6657
   -10.5905 -10.5905  -9.9012  -9.9012  -8.5270  -8.5270  -6.7809  -6.7809
    -6.4279  -6.4279  -5.6394  -5.6394  -4.7039  -4.7039   4.0067   4.0067
     5.0397   5.0397

     occupation numbers 
     1.0000   1.0000   1.0000   1.0000   1.0000   1.0000   1.0000   1.0000
     1.0000   1.0000   1.0000   1.0000   1.0000   1.0000   1.0000   1.0000
     1.0000   1.0000   1.0000   1.0000   1.0000   1.0000   0.0000   0.0000
     0.0000   0.0000

          k =-0.5000 0.2091 0.0000 (339206 PWs)   bands (ev):

   -27.0219 -27.0219 -26.8846 -26.8846 -15.4396 -15.4396 -13.9045 -13.9045
   -10.5547 -10.5547  -9.9640  -9.9640  -8.4264  -8.4264  -6.8639  -6.8639
    -6.2361  -6.2361  -5.6035  -5.6035  -4.6825  -4.6825   4.0845   4.0845
     5.0337   5.0337

     occupation numbers 
     1.0000   1.0000   1.0000   1.0000   1.0000   1.0000   1.0000   1.0000
     1.0000   1.0000   1.0000   1.0000   1.0000   1.0000   1.0000   1.0000
     1.0000   1.0000   1.0000   1.0000   1.0000   1.0000   0.0000   0.0000
     0.0000   0.0000

          k =-0.5000 0.2439 0.0000 (339236 PWs)   bands (ev):

   -27.0198 -27.0198 -26.8836 -26.8836 -15.3275 -15.3275 -14.1148 -14.1148
   -10.5390 -10.5390 -10.0064 -10.0064  -8.3474  -8.3474  -6.9302  -6.9302
    -6.0454  -6.0454  -5.5979  -5.5979  -4.6785  -4.6785   4.1472   4.1472
     5.0662   5.0662

     occupation numbers 
     1.0000   1.0000   1.0000   1.0000   1.0000   1.0000   1.0000   1.0000
     1.0000   1.0000   1.0000   1.0000   1.0000   1.0000   1.0000   1.0000
     1.0000   1.0000   1.0000   1.0000   1.0000   1.0000   0.0000   0.0000
     0.0000   0.0000

          k =-0.5000 0.2788 0.0000 (339278 PWs)   bands (ev):

   -27.0185 -27.0185 -26.8829 -26.8829 -15.2322 -15.2322 -14.2706 -14.2706
   -10.5346 -10.5346 -10.0297 -10.0297  -8.2975  -8.2975  -6.9719  -6.9719
    -5.8761  -5.8761  -5.6344  -5.6344  -4.6826  -4.6826   4.1847   4.1847
     5.1165   5.1165

     occupation numbers 
     1.0000   1.0000   1.0000   1.0000   1.0000   1.0000   1.0000   1.0000
     1.0000   1.0000   1.0000   1.0000   1.0000   1.0000   1.0000   1.0000
     1.0000   1.0000   1.0000   1.0000   1.0000   1.0000   0.0000   0.0000
     0.0000   0.0000

          k =-0.5000-0.3136 0.0000 (339276 PWs)   bands (ev):

   -27.0181 -27.0181 -26.8827 -26.8827 -15.1919 -15.1919 -14.3314 -14.3314
   -10.5342 -10.5342 -10.0371 -10.0371  -8.2805  -8.2805  -6.9861  -6.9861
    -5.7719  -5.7719  -5.6915  -5.6915  -4.6852  -4.6852   4.1966   4.1966
     5.1416   5.1416

     occupation numbers 
     1.0000   1.0000   1.0000   1.0000   1.0000   1.0000   1.0000   1.0000
     1.0000   1.0000   1.0000   1.0000   1.0000   1.0000   1.0000   1.0000
     1.0000   1.0000   1.0000   1.0000   1.0000   1.0000   0.0000   0.0000
     0.0000   0.0000

     the Fermi energy is    -0.4824 ev

!    total energy              =    -240.24744208 Ry
     estimated scf accuracy    <          2.2E-09 Ry
     smearing contrib. (-TS)   =      -0.00000000 Ry
     internal energy E=F+TS    =    -240.24744208 Ry

     The total energy is F=E-TS. E is the sum of the following terms:
     one-electron contribution =   -1256.48205557 Ry
     hartree contribution      =     642.01119742 Ry
     xc contribution           =     -51.69325663 Ry
     ewald contribution        =     425.91667271 Ry

     convergence has been achieved in  10 iterations

     negative rho (up, down):  1.335E-06 0.000E+00

     Forces acting on atoms (cartesian axes, Ry/au):

     atom    1 type  1   force =     0.00000000   -0.00005005   -0.00000428
     atom    2 type  1   force =     0.00000000   -0.00005005    0.00000428
     atom    3 type  1   force =     0.00000000    0.00005005   -0.00000428
     atom    4 type  1   force =     0.00000000    0.00005005    0.00000428
     atom    5 type  2   force =     0.00000000   -0.00003113   -0.00002806
     atom    6 type  2   force =     0.00000000   -0.00003113    0.00002806
     atom    7 type  2   force =     0.00000000    0.00003113   -0.00002806
     atom    8 type  2   force =     0.00000000    0.00003113    0.00002806
     The non-local contrib.  to forces
     atom    1 type  1   force =     0.00000000   -0.16227274    0.36789670
     atom    2 type  1   force =     0.00000000   -0.16227274   -0.36789670
     atom    3 type  1   force =     0.00000000    0.16227274    0.36789670
     atom    4 type  1   force =     0.00000000    0.16227274   -0.36789670
     atom    5 type  2   force =     0.00000000   -0.97074103    2.28338807
     atom    6 type  2   force =     0.00000000   -0.97074103   -2.28338807
     atom    7 type  2   force =     0.00000000    0.97074103    2.28338807
     atom    8 type  2   force =     0.00000000    0.97074103   -2.28338807
     The ionic contribution  to forces
     atom    1 type  1   force =     0.00000000    0.91439883    2.68704709
     atom    2 type  1   force =     0.00000000    0.91439883   -2.68704709
     atom    3 type  1   force =    -0.00000000   -0.91439883    2.68704709
     atom    4 type  1   force =    -0.00000000   -0.91439883   -2.68704709
     atom    5 type  2   force =     0.00000000    4.28250416  -44.49509369
     atom    6 type  2   force =    -0.00000000    4.28250416   44.49509369
     atom    7 type  2   force =     0.00000000   -4.28250416  -44.49509369
     atom    8 type  2   force =     0.00000000   -4.28250416   44.49509369
     The local contribution  to forces
     atom    1 type  1   force =    -0.00000000   -0.75314614   -3.05230115
     atom    2 type  1   force =    -0.00000000   -0.75314614    3.05230115
     atom    3 type  1   force =     0.00000000    0.75314614   -3.05230115
     atom    4 type  1   force =     0.00000000    0.75314614    3.05230115
     atom    5 type  2   force =     0.00000000   -3.31182066   42.21178786
     atom    6 type  2   force =    -0.00000000   -3.31182066  -42.21178786
     atom    7 type  2   force =     0.00000000    3.31182066   42.21178786
     atom    8 type  2   force =     0.00000000    3.31182066  -42.21178786
     The core correction contribution to forces
     atom    1 type  1   force =     0.00000000    0.00097343   -0.00267342
     atom    2 type  1   force =     0.00000000    0.00097343    0.00267342
     atom    3 type  1   force =    -0.00000000   -0.00097343   -0.00267342
     atom    4 type  1   force =    -0.00000000   -0.00097343    0.00267342
     atom    5 type  2   force =     0.00000000    0.00000000    0.00000000
     atom    6 type  2   force =     0.00000000    0.00000000    0.00000000
     atom    7 type  2   force =     0.00000000    0.00000000    0.00000000
     atom    8 type  2   force =     0.00000000    0.00000000    0.00000000
     The Hubbard contrib.    to forces
     atom    1 type  1   force =     0.00000000    0.00000000    0.00000000
     atom    2 type  1   force =     0.00000000    0.00000000    0.00000000
     atom    3 type  1   force =     0.00000000    0.00000000    0.00000000
     atom    4 type  1   force =     0.00000000    0.00000000    0.00000000
     atom    5 type  2   force =     0.00000000    0.00000000    0.00000000
     atom    6 type  2   force =     0.00000000    0.00000000    0.00000000
     atom    7 type  2   force =     0.00000000    0.00000000    0.00000000
     atom    8 type  2   force =     0.00000000    0.00000000    0.00000000
     The SCF correction term to forces
     atom    1 type  1   force =    -0.00000000   -0.00000343    0.00002650
     atom    2 type  1   force =    -0.00000000   -0.00000343   -0.00002650
     atom    3 type  1   force =    -0.00000000    0.00000343    0.00002650
     atom    4 type  1   force =    -0.00000000    0.00000343   -0.00002650
     atom    5 type  2   force =    -0.00000000    0.00002640   -0.00011029
     atom    6 type  2   force =     0.00000000    0.00002640    0.00011029
     atom    7 type  2   force =     0.00000000   -0.00002640   -0.00011029
     atom    8 type  2   force =     0.00000000   -0.00002640    0.00011029

     Total force =     0.000131     Total SCF correction =     0.000233
     SCF correction compared to forces is large: reduce conv_thr to get better values


     Computing stress (Cartesian axis) and pressure


     negative rho (up, down):  1.335E-06 0.000E+00
          total   stress  (Ry/bohr**3)                   (kbar)     P=       -0.05
  -0.00000065   0.00000000   0.00000000           -0.10        0.00        0.00
   0.00000000  -0.00000030   0.00000000            0.00       -0.04        0.00
   0.00000000   0.00000000  -0.00000012            0.00        0.00       -0.02

     kinetic stress (kbar)   9135.56      0.00      0.00
                                0.00   8958.54      0.00
                                0.00      0.00   8301.44

     local   stress (kbar)-161108.15      0.00      0.00
                                0.00-162214.32     -0.00
                                0.00     -0.00 155410.91

     nonloc. stress (kbar)   1180.26      0.00      0.00
                                0.00   1137.48      0.00
                                0.00      0.00    963.81

     hartree stress (kbar)  80821.34      0.00      0.00
                                0.00  81109.51     -0.00
                                0.00     -0.00 -74841.86

     exc-cor stress (kbar)  -2141.77     -0.00      0.00
                               -0.00  -2137.82     -0.00
                                0.00     -0.00  -2131.14

     corecor stress (kbar)    -73.64     -0.00     -0.00
                               -0.00    -73.49     -0.00
                               -0.00     -0.00    -72.52

     ewald   stress (kbar)  72186.31      0.00      0.00
                                0.00  73220.06      0.00
                                0.00      0.00 -87630.66

     hubbard stress (kbar)      0.00      0.00      0.00
                                0.00      0.00      0.00
                                0.00      0.00      0.00

     DFT-D   stress (kbar)      0.00      0.00      0.00
                                0.00      0.00      0.00
                                0.00      0.00      0.00

     XDM     stress (kbar)      0.00      0.00      0.00
                                0.00      0.00      0.00
                                0.00      0.00      0.00

     dft-nl  stress (kbar)      0.00      0.00      0.00
                                0.00      0.00      0.00
                                0.00      0.00      0.00

     TS-vdW  stress (kbar)      0.00      0.00      0.00
                                0.00      0.00      0.00
                                0.00      0.00      0.00

     MDB     stress (kbar)      0.00      0.00      0.00
                                0.00      0.00      0.00
                                0.00      0.00      0.00

     3D-RISM stress (kbar)      0.00      0.00      0.00
                                0.00      0.00      0.00
                                0.00      0.00      0.00


     Writing all to output data dir ../tmp/fgz.save/

     init_run     :    123.10s CPU    183.21s WALL (       1 calls)
     electrons    :   5324.83s CPU   7919.94s WALL (       1 calls)
     forces       :    101.08s CPU    173.37s WALL (       1 calls)
     stress       :     78.35s CPU    139.13s WALL (       1 calls)

     Called by init_run:
     wfcinit      :    120.72s CPU    180.64s WALL (       1 calls)
     wfcinit:atom :      0.51s CPU      0.62s WALL (     100 calls)
     wfcinit:wfcr :    115.94s CPU    173.60s WALL (     100 calls)
     potinit      :      0.34s CPU      0.34s WALL (       1 calls)
     hinit0       :      0.87s CPU      0.87s WALL (       1 calls)

     Called by electrons:
     c_bands      :   5102.84s CPU   7496.93s WALL (      10 calls)
     sum_band     :    218.44s CPU    417.09s WALL (      10 calls)
     v_of_rho     :      0.73s CPU      0.76s WALL (      11 calls)
     v_h          :      0.05s CPU      0.05s WALL (      11 calls)
     v_xc         :      0.80s CPU      0.83s WALL (      13 calls)
     newd         :      2.53s CPU      4.21s WALL (      11 calls)
     mix_rho      :      0.21s CPU      0.30s WALL (      10 calls)

     Called by c_bands:
     init_us_2    :      3.69s CPU      6.02s WALL (    2300 calls)
     init_us_2:cp :      3.68s CPU      6.02s WALL (    2300 calls)
     cegterg      :   4925.96s CPU   7223.65s WALL (    1000 calls)

     Called by sum_band:
     sum_band:wei :      0.00s CPU      0.01s WALL (      10 calls)
     sum_band:loo :    215.20s CPU    410.72s WALL (      10 calls)
     sum_band:buf :      0.45s CPU      1.14s WALL (    1000 calls)
     sum_band:ini :      1.36s CPU      2.21s WALL (    1000 calls)
     sum_band:cal :    170.12s CPU    351.16s WALL (    1000 calls)
     sum_band:bec :      0.01s CPU      0.02s WALL (    1000 calls)
     addusdens    :      1.87s CPU      4.47s WALL (      10 calls)
     addusd:skk   :      0.01s CPU      0.04s WALL (      20 calls)
     addusd:dgemm :      1.02s CPU      2.83s WALL (      20 calls)
     addusd:qvan2 :      0.81s CPU      1.54s WALL (      20 calls)

     Called by *egterg:
     cdiaghg      :    551.25s CPU    260.59s WALL (    4500 calls)
     cegterg:over :   1353.98s CPU   1992.52s WALL (    3500 calls)
     cegterg:upda :    229.33s CPU    359.74s WALL (    3500 calls)
     cegterg:last :    248.53s CPU    387.48s WALL (    2271 calls)
     h_psi        :   1540.61s CPU   2715.35s WALL (    4600 calls)
     s_psi        :     74.69s CPU    139.15s WALL (    4600 calls)
     g_psi        :      1.91s CPU      1.22s WALL (    3500 calls)

     Called by h_psi:
     h_psi:calbec :    841.94s CPU   1591.45s WALL (    4600 calls)
     vloc_psi     :    388.49s CPU    403.76s WALL (    4600 calls)
     add_vuspsi   :    308.29s CPU    717.55s WALL (    4600 calls)

     General routines
     calbec       :   1150.34s CPU   2171.82s WALL (    6100 calls)
     fft          :      1.03s CPU      1.10s WALL (     146 calls)
     ffts         :      0.07s CPU      0.08s WALL (      10 calls)
     fftw         :    410.84s CPU    428.20s WALL (  172250 calls)

     Parallel routines

     PWSCF        :      1h33m CPU      2h21m WALL


   This run was terminated on:   9:27: 7  20Jan2024            

=------------------------------------------------------------------------------=
   JOB DONE.
=------------------------------------------------------------------------------=
