
     Program PWSCF v.7.1 starts on 20Jan2024 at  3:50:58 

     This program is part of the open-source Quantum ESPRESSO suite
     for quantum simulation of materials; please cite
         "P. Giannozzi et al., J. Phys.:Condens. Matter 21 395502 (2009);
         "P. Giannozzi et al., J. Phys.:Condens. Matter 29 465901 (2017);
         "P. Giannozzi et al., J. Chem. Phys. 152 154105 (2020);
          URL http://www.quantum-espresso.org", 
     in publications or presentations arising from this work. More details at
     http://www.quantum-espresso.org/quote

     Parallel version (MPI), running on    50 processors

     MPI processes distributed on     1 nodes
     348948 MiB available memory on the printing compute node when the environment starts

     Reading input from kpoint.9.in

     Current dimensions of program PWSCF are:
     Max number of different atomic species (ntypx) = 10
     Max number of k-points (npk) =  40000
     Max angular momentum in pseudopotentials (lmaxx) =  4
     Message from routine setup:
     using ibrav=0 with symmetry is DISCOURAGED, use correct ibrav instead

     R & G space division:  proc/nbgrp/npool/nimage =      50
     Subspace diagonalization in iterative solution of the eigenvalue problem:
     a serial algorithm will be used


     Parallelization info
     --------------------
     sticks:   dense  smooth     PW     G-vecs:    dense   smooth      PW
     Min         175     175     46                54253    54253    7304
     Max         176     176     47                54271    54271    7315
     Sum        8763    8763   2307              2713169  2713169  365347

     Using Slab Decomposition



     bravais-lattice index     =            0
     lattice parameter (alat)  =       4.9702  a.u.
     unit-cell volume          =    1084.4437 (a.u.)^3
     number of atoms/cell      =            8
     number of atomic types    =            2
     number of electrons       =        44.00
     number of Kohn-Sham states=           26
     kinetic-energy cutoff     =     700.0000  Ry
     charge density cutoff     =    2800.0000  Ry
     scf convergence threshold =      1.0E-08
     mixing beta               =       0.7000
     number of iterations used =            8  plain     mixing
     Exchange-correlation=  SLA  PW   PBX  PBC
                           (   1   4   3   4   0   0   0)

     celldm(1)=   4.970237  celldm(2)=   0.000000  celldm(3)=   0.000000
     celldm(4)=   0.000000  celldm(5)=   0.000000  celldm(6)=   0.000000

     crystal axes: (cart. coord. in units of alat)
               a(1) = (   1.000000   0.000000   0.000000 )  
               a(2) = (   0.000000   1.594189   0.000000 )  
               a(3) = (   0.000000   0.000000   5.540333 )  

     reciprocal axes: (cart. coord. in units 2 pi/alat)
               b(1) = (  1.000000  0.000000  0.000000 )  
               b(2) = (  0.000000  0.627278  0.000000 )  
               b(3) = (  0.000000  0.000000  0.180495 )  


     PseudoPot. # 1 for C  read from file:
     ../pseudo/c_pbe_v1.2.uspp.F.UPF
     MD5 check sum: d1aef80898a10debaa0f26306b886e00
     Pseudo is Ultrasoft + core correction, Zval =  4.0
     Generated by new atomic code, or converted to UPF format
     Using radial grid of  721 points,  4 beta functions with: 
                l(1) =   0
                l(2) =   0
                l(3) =   1
                l(4) =   1
     Q(r) pseudized with  8 coefficients,  rinner =    1.100   1.100   1.100


     PseudoPot. # 2 for F  read from file:
     ../pseudo/f_pbe_v1.4.uspp.F.UPF
     MD5 check sum: 4c38b6a325caf53ec0e86aed9459de46
     Pseudo is Ultrasoft, Zval =  7.0
     Generated by new atomic code, or converted to UPF format
     Using radial grid of  799 points,  4 beta functions with: 
                l(1) =   0
                l(2) =   0
                l(3) =   1
                l(4) =   1
     Q(r) pseudized with  8 coefficients,  rinner =    0.950   0.950   0.950


     atomic species   valence    mass     pseudopotential
        C              4.00    12.01070     C ( 1.00)
        F              7.00    18.99840     F ( 1.00)

      8 Sym. Ops., with inversion, found ( 4 have fractional translation)


                                    s                        frac. trans.

      isym =  1     identity                                     

 cryst.   s( 1) = (     1          0          0      )
                  (     0          1          0      )
                  (     0          0          1      )

 cart.    s( 1) = (  1.0000000  0.0000000  0.0000000 )
                  (  0.0000000  1.0000000  0.0000000 )
                  (  0.0000000  0.0000000  1.0000000 )


      isym =  2     180 deg rotation - cart. axis [0,0,1]        

 cryst.   s( 2) = (    -1          0          0      )    f =(  0.5000000 )
                  (     0         -1          0      )       (  0.5000000 )
                  (     0          0          1      )       (  0.0000000 )

 cart.    s( 2) = ( -1.0000000  0.0000000  0.0000000 )    f =(  0.5000000 )
                  (  0.0000000 -1.0000000  0.0000000 )       (  0.7970945 )
                  (  0.0000000  0.0000000  1.0000000 )       (  0.0000000 )


      isym =  3     180 deg rotation - cart. axis [0,1,0]        

 cryst.   s( 3) = (    -1          0          0      )    f =(  0.5000000 )
                  (     0          1          0      )       ( -0.5000000 )
                  (     0          0         -1      )       (  0.0000000 )

 cart.    s( 3) = ( -1.0000000  0.0000000  0.0000000 )    f =(  0.5000000 )
                  (  0.0000000  1.0000000  0.0000000 )       ( -0.7970945 )
                  (  0.0000000  0.0000000 -1.0000000 )       (  0.0000000 )


      isym =  4     180 deg rotation - cart. axis [1,0,0]        

 cryst.   s( 4) = (     1          0          0      )
                  (     0         -1          0      )
                  (     0          0         -1      )

 cart.    s( 4) = (  1.0000000  0.0000000  0.0000000 )
                  (  0.0000000 -1.0000000  0.0000000 )
                  (  0.0000000  0.0000000 -1.0000000 )


      isym =  5     inversion                                    

 cryst.   s( 5) = (    -1          0          0      )
                  (     0         -1          0      )
                  (     0          0         -1      )

 cart.    s( 5) = ( -1.0000000  0.0000000  0.0000000 )
                  (  0.0000000 -1.0000000  0.0000000 )
                  (  0.0000000  0.0000000 -1.0000000 )


      isym =  6     inv. 180 deg rotation - cart. axis [0,0,1]   

 cryst.   s( 6) = (     1          0          0      )    f =(  0.5000000 )
                  (     0          1          0      )       ( -0.5000000 )
                  (     0          0         -1      )       (  0.0000000 )

 cart.    s( 6) = (  1.0000000  0.0000000  0.0000000 )    f =(  0.5000000 )
                  (  0.0000000  1.0000000  0.0000000 )       ( -0.7970945 )
                  (  0.0000000  0.0000000 -1.0000000 )       (  0.0000000 )


      isym =  7     inv. 180 deg rotation - cart. axis [0,1,0]   

 cryst.   s( 7) = (     1          0          0      )    f =(  0.5000000 )
                  (     0         -1          0      )       (  0.5000000 )
                  (     0          0          1      )       (  0.0000000 )

 cart.    s( 7) = (  1.0000000  0.0000000  0.0000000 )    f =(  0.5000000 )
                  (  0.0000000 -1.0000000  0.0000000 )       (  0.7970945 )
                  (  0.0000000  0.0000000  1.0000000 )       (  0.0000000 )


      isym =  8     inv. 180 deg rotation - cart. axis [1,0,0]   

 cryst.   s( 8) = (    -1          0          0      )
                  (     0          1          0      )
                  (     0          0          1      )

 cart.    s( 8) = ( -1.0000000  0.0000000  0.0000000 )
                  (  0.0000000  1.0000000  0.0000000 )
                  (  0.0000000  0.0000000  1.0000000 )


   Cartesian axes

     site n.     atom                  positions (alat units)
         1           C   tau(   1) = (   0.5000000   0.2256478   0.1937169  )
         2           C   tau(   2) = (   0.0000000   1.0227422  -0.1937169  )
         3           C   tau(   3) = (   0.0000000   0.5714467   0.1937169  )
         4           C   tau(   4) = (   0.5000000   1.3685411  -0.1937169  )
         5           F   tau(   5) = (   0.5000000  -0.0095812  -0.6719762  )
         6           F   tau(   6) = (   0.0000000   0.7875132   0.6719762  )
         7           F   tau(   7) = (   0.0000000   0.8066757  -0.6719762  )
         8           F   tau(   8) = (   0.5000000   0.0095812   0.6719762  )

   Crystallographic axes

     site n.     atom                  positions (cryst. coord.)
         1           C   tau(   1) = (  0.5000000  0.1415439  0.0349649  )
         2           C   tau(   2) = (  0.0000000  0.6415439 -0.0349649  )
         3           C   tau(   3) = (  0.0000000  0.3584561  0.0349649  )
         4           C   tau(   4) = (  0.5000000  0.8584561 -0.0349649  )
         5           F   tau(   5) = (  0.5000000 -0.0060101 -0.1212881  )
         6           F   tau(   6) = (  0.0000000  0.4939899  0.1212881  )
         7           F   tau(   7) = (  0.0000000  0.5060101 -0.1212881  )
         8           F   tau(   8) = (  0.5000000  0.0060101  0.1212881  )

     number of k points=    25  Marzari-Vanderbilt smearing, width (Ry)=  0.0200
                       cart. coord. in units 2pi/alat
        k(    1) = (   0.0000000   0.0000000   0.0000000), wk =   0.0246914
        k(    2) = (   0.0000000   0.0696976   0.0000000), wk =   0.0493827
        k(    3) = (   0.0000000   0.1393952   0.0000000), wk =   0.0493827
        k(    4) = (   0.0000000   0.2090927   0.0000000), wk =   0.0493827
        k(    5) = (   0.0000000   0.2787903   0.0000000), wk =   0.0493827
        k(    6) = (   0.1111111   0.0000000   0.0000000), wk =   0.0493827
        k(    7) = (   0.1111111   0.0696976   0.0000000), wk =   0.0987654
        k(    8) = (   0.1111111   0.1393952   0.0000000), wk =   0.0987654
        k(    9) = (   0.1111111   0.2090927   0.0000000), wk =   0.0987654
        k(   10) = (   0.1111111   0.2787903   0.0000000), wk =   0.0987654
        k(   11) = (   0.2222222   0.0000000   0.0000000), wk =   0.0493827
        k(   12) = (   0.2222222   0.0696976   0.0000000), wk =   0.0987654
        k(   13) = (   0.2222222   0.1393952   0.0000000), wk =   0.0987654
        k(   14) = (   0.2222222   0.2090927   0.0000000), wk =   0.0987654
        k(   15) = (   0.2222222   0.2787903   0.0000000), wk =   0.0987654
        k(   16) = (   0.3333333   0.0000000   0.0000000), wk =   0.0493827
        k(   17) = (   0.3333333   0.0696976   0.0000000), wk =   0.0987654
        k(   18) = (   0.3333333   0.1393952   0.0000000), wk =   0.0987654
        k(   19) = (   0.3333333   0.2090927   0.0000000), wk =   0.0987654
        k(   20) = (   0.3333333   0.2787903   0.0000000), wk =   0.0987654
        k(   21) = (   0.4444444   0.0000000   0.0000000), wk =   0.0493827
        k(   22) = (   0.4444444   0.0696976   0.0000000), wk =   0.0987654
        k(   23) = (   0.4444444   0.1393952   0.0000000), wk =   0.0987654
        k(   24) = (   0.4444444   0.2090927   0.0000000), wk =   0.0987654
        k(   25) = (   0.4444444   0.2787903   0.0000000), wk =   0.0987654

                       cryst. coord.
        k(    1) = (   0.0000000   0.0000000   0.0000000), wk =   0.0246914
        k(    2) = (   0.0000000   0.1111111   0.0000000), wk =   0.0493827
        k(    3) = (   0.0000000   0.2222222   0.0000000), wk =   0.0493827
        k(    4) = (   0.0000000   0.3333333   0.0000000), wk =   0.0493827
        k(    5) = (   0.0000000   0.4444444   0.0000000), wk =   0.0493827
        k(    6) = (   0.1111111   0.0000000   0.0000000), wk =   0.0493827
        k(    7) = (   0.1111111   0.1111111   0.0000000), wk =   0.0987654
        k(    8) = (   0.1111111   0.2222222   0.0000000), wk =   0.0987654
        k(    9) = (   0.1111111   0.3333333   0.0000000), wk =   0.0987654
        k(   10) = (   0.1111111   0.4444444   0.0000000), wk =   0.0987654
        k(   11) = (   0.2222222   0.0000000   0.0000000), wk =   0.0493827
        k(   12) = (   0.2222222   0.1111111   0.0000000), wk =   0.0987654
        k(   13) = (   0.2222222   0.2222222   0.0000000), wk =   0.0987654
        k(   14) = (   0.2222222   0.3333333   0.0000000), wk =   0.0987654
        k(   15) = (   0.2222222   0.4444444   0.0000000), wk =   0.0987654
        k(   16) = (   0.3333333   0.0000000   0.0000000), wk =   0.0493827
        k(   17) = (   0.3333333   0.1111111   0.0000000), wk =   0.0987654
        k(   18) = (   0.3333333   0.2222222   0.0000000), wk =   0.0987654
        k(   19) = (   0.3333333   0.3333333   0.0000000), wk =   0.0987654
        k(   20) = (   0.3333333   0.4444444   0.0000000), wk =   0.0987654
        k(   21) = (   0.4444444   0.0000000   0.0000000), wk =   0.0493827
        k(   22) = (   0.4444444   0.1111111   0.0000000), wk =   0.0987654
        k(   23) = (   0.4444444   0.2222222   0.0000000), wk =   0.0987654
        k(   24) = (   0.4444444   0.3333333   0.0000000), wk =   0.0987654
        k(   25) = (   0.4444444   0.4444444   0.0000000), wk =   0.0987654

     Dense  grid:  2713169 G-vectors     FFT dimensions: (  90, 144, 480)

     Dynamical RAM for                 wfc:       2.69 MB

     Dynamical RAM for     wfc (w. buffer):      69.97 MB

     Dynamical RAM for           str. fact:       1.66 MB

     Dynamical RAM for           local pot:       0.00 MB

     Dynamical RAM for          nlocal pot:       6.62 MB

     Dynamical RAM for                qrad:       2.42 MB

     Dynamical RAM for          rho,v,vnew:       5.45 MB

     Dynamical RAM for               rhoin:       1.82 MB

     Dynamical RAM for            rho*nmix:      13.25 MB

     Dynamical RAM for           G-vectors:       3.52 MB

     Dynamical RAM for          h,s,v(r/c):       0.12 MB

     Dynamical RAM for          <psi|beta>:       0.03 MB

     Dynamical RAM for                 psi:       5.38 MB

     Dynamical RAM for                hpsi:       5.38 MB

     Dynamical RAM for                spsi:       5.38 MB

     Dynamical RAM for      wfcinit/wfcrot:       6.65 MB

     Dynamical RAM for           addusdens:      38.92 MB

     Dynamical RAM for          addusforce:      44.30 MB

     Dynamical RAM for         addusstress:      41.40 MB

     Estimated static dynamical RAM per process >      98.88 MB

     Estimated max dynamical RAM per process >     156.43 MB

     Estimated total dynamical RAM >       7.64 GB

     Initial potential from superposition of free atoms

     starting charge      43.9998, renormalised to      44.0000

     negative rho (up, down):  6.060E-03 0.000E+00
     Starting wfcs are   32 randomized atomic wfcs

     total cpu time spent up to now is       48.5 secs

     Self-consistent Calculation

     iteration #  1     ecut=   700.00 Ry     beta= 0.70
     Davidson diagonalization with overlap

---- Real-time Memory Report at c_bands before calling an iterative solver
           140 MiB given to the printing process from OS
             0 MiB allocation reported by mallinfo(arena+hblkhd)
        343303 MiB available memory on the node where the printing process lives
------------------
     ethr =  1.00E-02,  avg # of iterations =  4.3

     negative rho (up, down):  1.628E-03 0.000E+00

     total cpu time spent up to now is      281.1 secs

     total energy              =    -240.10982514 Ry
     estimated scf accuracy    <       0.44432463 Ry

     iteration #  2     ecut=   700.00 Ry     beta= 0.70
     Davidson diagonalization with overlap

---- Real-time Memory Report at c_bands before calling an iterative solver
           184 MiB given to the printing process from OS
             0 MiB allocation reported by mallinfo(arena+hblkhd)
        341036 MiB available memory on the node where the printing process lives
------------------
     ethr =  1.01E-03,  avg # of iterations =  3.9

     negative rho (up, down):  1.009E-03 0.000E+00

     total cpu time spent up to now is      497.9 secs

     total energy              =    -240.13079057 Ry
     estimated scf accuracy    <       0.43747956 Ry

     iteration #  3     ecut=   700.00 Ry     beta= 0.70
     Davidson diagonalization with overlap

---- Real-time Memory Report at c_bands before calling an iterative solver
           189 MiB given to the printing process from OS
             0 MiB allocation reported by mallinfo(arena+hblkhd)
        340943 MiB available memory on the node where the printing process lives
------------------
     ethr =  9.94E-04,  avg # of iterations =  2.2

     negative rho (up, down):  1.856E-04 0.000E+00

     total cpu time spent up to now is      644.2 secs

     total energy              =    -240.24478753 Ry
     estimated scf accuracy    <       0.02099710 Ry

     iteration #  4     ecut=   700.00 Ry     beta= 0.70
     Davidson diagonalization with overlap

---- Real-time Memory Report at c_bands before calling an iterative solver
           190 MiB given to the printing process from OS
             0 MiB allocation reported by mallinfo(arena+hblkhd)
        340851 MiB available memory on the node where the printing process lives
------------------
     ethr =  4.77E-05,  avg # of iterations =  5.2

     negative rho (up, down):  3.290E-05 0.000E+00

     total cpu time spent up to now is      891.5 secs

     total energy              =    -240.24706601 Ry
     estimated scf accuracy    <       0.00171610 Ry

     iteration #  5     ecut=   700.00 Ry     beta= 0.70
     Davidson diagonalization with overlap

---- Real-time Memory Report at c_bands before calling an iterative solver
           192 MiB given to the printing process from OS
             0 MiB allocation reported by mallinfo(arena+hblkhd)
        340753 MiB available memory on the node where the printing process lives
------------------
     ethr =  3.90E-06,  avg # of iterations =  4.8

     negative rho (up, down):  1.295E-06 0.000E+00

     total cpu time spent up to now is     1138.1 secs

     total energy              =    -240.24742407 Ry
     estimated scf accuracy    <       0.00002181 Ry

     iteration #  6     ecut=   700.00 Ry     beta= 0.70
     Davidson diagonalization with overlap

---- Real-time Memory Report at c_bands before calling an iterative solver
           194 MiB given to the printing process from OS
             0 MiB allocation reported by mallinfo(arena+hblkhd)
        340655 MiB available memory on the node where the printing process lives
------------------
     ethr =  4.96E-08,  avg # of iterations =  4.2

     negative rho (up, down):  1.353E-06 0.000E+00

     total cpu time spent up to now is     1366.1 secs

     total energy              =    -240.24743459 Ry
     estimated scf accuracy    <       0.00002100 Ry

     iteration #  7     ecut=   700.00 Ry     beta= 0.70
     Davidson diagonalization with overlap

---- Real-time Memory Report at c_bands before calling an iterative solver
           195 MiB given to the printing process from OS
             0 MiB allocation reported by mallinfo(arena+hblkhd)
        340581 MiB available memory on the node where the printing process lives
------------------
     ethr =  4.77E-08,  avg # of iterations =  1.9

     negative rho (up, down):  1.344E-06 0.000E+00

     total cpu time spent up to now is     1501.2 secs

     total energy              =    -240.24743565 Ry
     estimated scf accuracy    <       0.00000183 Ry

     iteration #  8     ecut=   700.00 Ry     beta= 0.70
     Davidson diagonalization with overlap

---- Real-time Memory Report at c_bands before calling an iterative solver
           197 MiB given to the printing process from OS
             0 MiB allocation reported by mallinfo(arena+hblkhd)
        340505 MiB available memory on the node where the printing process lives
------------------
     ethr =  4.15E-09,  avg # of iterations =  3.2

     negative rho (up, down):  1.353E-06 0.000E+00

     total cpu time spent up to now is     1694.4 secs

     total energy              =    -240.24743641 Ry
     estimated scf accuracy    <       0.00000062 Ry

     iteration #  9     ecut=   700.00 Ry     beta= 0.70
     Davidson diagonalization with overlap

---- Real-time Memory Report at c_bands before calling an iterative solver
           199 MiB given to the printing process from OS
             0 MiB allocation reported by mallinfo(arena+hblkhd)
        340409 MiB available memory on the node where the printing process lives
------------------
     ethr =  1.40E-09,  avg # of iterations =  2.0

     negative rho (up, down):  1.339E-06 0.000E+00

     total cpu time spent up to now is     1838.7 secs

     total energy              =    -240.24743649 Ry
     estimated scf accuracy    <       0.00000002 Ry

     iteration # 10     ecut=   700.00 Ry     beta= 0.70
     Davidson diagonalization with overlap

---- Real-time Memory Report at c_bands before calling an iterative solver
           200 MiB given to the printing process from OS
             0 MiB allocation reported by mallinfo(arena+hblkhd)
        340329 MiB available memory on the node where the printing process lives
------------------
     ethr =  4.15E-11,  avg # of iterations =  3.5

     negative rho (up, down):  1.335E-06 0.000E+00

     total cpu time spent up to now is     2039.7 secs

     End of self-consistent calculation

          k = 0.0000 0.0000 0.0000 (339089 PWs)   bands (ev):

   -28.1834 -27.9022 -26.6494 -26.5318 -18.8098 -15.5402 -13.5843 -11.1232
   -10.3489  -9.9809  -8.6995  -8.2805  -7.6842  -7.5566  -7.3229  -5.4480
    -5.3045  -5.2488  -4.5965  -4.2727  -4.0437  -2.7239   0.8195   3.2718
     3.3854   4.4164

     occupation numbers 
     1.0000   1.0000   1.0000   1.0000   1.0000   1.0000   1.0000   1.0000
     1.0000   1.0000   1.0000   1.0000   1.0000   1.0000   1.0000   1.0000
     1.0000   1.0000   1.0000   1.0000   1.0000   1.0000   0.0000   0.0000
     0.0000   0.0000

          k = 0.0000 0.0697 0.0000 (339085 PWs)   bands (ev):

   -28.1535 -27.8805 -26.6851 -26.5656 -18.7490 -15.7621 -13.3993 -11.0867
   -10.2359 -10.0143  -8.6504  -8.2937  -7.7774  -7.4624  -7.3376  -5.4949
    -5.3765  -5.3392  -4.6556  -4.2413  -4.0042  -2.7761   0.9617   3.2975
     3.3798   4.6003

     occupation numbers 
     1.0000   1.0000   1.0000   1.0000   1.0000   1.0000   1.0000   1.0000
     1.0000   1.0000   1.0000   1.0000   1.0000   1.0000   1.0000   1.0000
     1.0000   1.0000   1.0000   1.0000   1.0000   1.0000   0.0000   0.0000
     0.0000   0.0000

          k = 0.0000 0.1394 0.0000 (339099 PWs)   bands (ev):

   -28.0685 -27.8231 -26.7795 -26.6586 -18.5684 -16.2588 -12.9912 -11.0546
   -10.0359  -9.9385  -8.5080  -8.3458  -8.0327  -7.3955  -7.2106  -5.6581
    -5.6039  -5.4307  -4.7835  -4.2399  -3.8948  -2.9159   1.3474   3.3474
     3.3735   4.7148

     occupation numbers 
     1.0000   1.0000   1.0000   1.0000   1.0000   1.0000   1.0000   1.0000
     1.0000   1.0000   1.0000   1.0000   1.0000   1.0000   1.0000   1.0000
     1.0000   1.0000   1.0000   1.0000   1.0000   1.0000   0.0000   0.0000
     0.0000   0.0000

          k = 0.0000 0.2091 0.0000 (338975 PWs)   bands (ev):

   -27.9447 -27.7579 -26.8919 -26.7860 -18.2733 -16.8306 -12.5130 -11.2094
    -9.8637  -9.5572  -8.4677  -8.4105  -8.2876  -7.5279  -6.8618  -5.9606
    -5.6995  -5.5492  -4.8691  -4.3656  -3.7334  -3.1088   1.8841   3.2349
     3.4991   4.3676

     occupation numbers 
     1.0000   1.0000   1.0000   1.0000   1.0000   1.0000   1.0000   1.0000
     1.0000   1.0000   1.0000   1.0000   1.0000   1.0000   1.0000   1.0000
     1.0000   1.0000   1.0000   1.0000   1.0000   1.0000   0.0000   0.0000
     0.0000   0.0000

          k = 0.0000 0.2788 0.0000 (338928 PWs)   bands (ev):

   -27.8161 -27.7412 -26.9515 -26.9046 -17.8734 -17.3840 -12.0237 -11.5667
    -9.5039  -9.2692  -8.7696  -8.6741  -8.0187  -7.7470  -6.5172  -6.2335
    -5.7195  -5.6585  -4.8088  -4.5978  -3.5376  -3.3236   2.4629   2.9512
     3.6831   3.9646

     occupation numbers 
     1.0000   1.0000   1.0000   1.0000   1.0000   1.0000   1.0000   1.0000
     1.0000   1.0000   1.0000   1.0000   1.0000   1.0000   1.0000   1.0000
     1.0000   1.0000   1.0000   1.0000   1.0000   1.0000   0.0000   0.0000
     0.0000   0.0000

          k = 0.1111 0.0000 0.0000 (339168 PWs)   bands (ev):

   -28.0993 -27.8281 -26.6474 -26.5320 -18.6561 -15.3908 -13.5224 -10.9999
   -10.2737 -10.0027  -9.3980  -8.3832  -7.7870  -7.6322  -7.4610  -5.7737
    -5.5924  -5.3186  -4.6936  -4.3840  -4.1912  -3.2726   1.0600   4.0618
     4.1786   4.3918

     occupation numbers 
     1.0000   1.0000   1.0000   1.0000   1.0000   1.0000   1.0000   1.0000
     1.0000   1.0000   1.0000   1.0000   1.0000   1.0000   1.0000   1.0000
     1.0000   1.0000   1.0000   1.0000   1.0000   1.0000   0.0000   0.0000
     0.0000   0.0000

          k = 0.1111 0.0697 0.0000 (339216 PWs)   bands (ev):

   -28.0706 -27.8074 -26.6807 -26.5636 -18.5959 -15.6176 -13.3352 -10.9754
   -10.1819 -10.0374  -9.3378  -8.4122  -7.8019  -7.7278  -7.3694  -5.8378
    -5.6205  -5.3260  -4.7101  -4.3603  -4.2081  -3.3345   1.1841   4.1710
     4.2296   4.4090

     occupation numbers 
     1.0000   1.0000   1.0000   1.0000   1.0000   1.0000   1.0000   1.0000
     1.0000   1.0000   1.0000   1.0000   1.0000   1.0000   1.0000   1.0000
     1.0000   1.0000   1.0000   1.0000   1.0000   1.0000   0.0000   0.0000
     0.0000   0.0000

          k = 0.1111 0.1394 0.0000 (339048 PWs)   bands (ev):

   -27.9892 -27.7526 -26.7686 -26.6507 -18.4169 -16.1187 -12.9309 -10.9774
   -10.0644  -9.9566  -9.1584  -8.5071  -7.9702  -7.8473  -7.1310  -5.9310
    -5.6811  -5.4356  -4.7753  -4.2770  -4.2685  -3.4751   1.5308   4.1081
     4.4564   4.6236

     occupation numbers 
     1.0000   1.0000   1.0000   1.0000   1.0000   1.0000   1.0000   1.0000
     1.0000   1.0000   1.0000   1.0000   1.0000   1.0000   1.0000   1.0000
     1.0000   1.0000   1.0000   1.0000   1.0000   1.0000   0.0000   0.0000
     0.0000   0.0000

          k = 0.1111 0.2091 0.0000 (339008 PWs)   bands (ev):

   -27.8706 -27.6906 -26.8733 -26.7705 -18.1244 -16.6906 -12.4647 -11.1666
    -9.9235  -9.7036  -8.9172  -8.6697  -8.2571  -7.9318  -6.7987  -5.9730
    -5.7351  -5.6712  -4.8508  -4.4408  -4.1165  -3.6220   2.0404   3.8334
     4.5215   4.7149

     occupation numbers 
     1.0000   1.0000   1.0000   1.0000   1.0000   1.0000   1.0000   1.0000
     1.0000   1.0000   1.0000   1.0000   1.0000   1.0000   1.0000   1.0000
     1.0000   1.0000   1.0000   1.0000   1.0000   1.0000   0.0000   0.0000
     0.0000   0.0000

          k = 0.1111 0.2788 0.0000 (338940 PWs)   bands (ev):

   -27.7474 -27.6753 -26.9281 -26.8827 -17.7276 -17.2415 -11.9881 -11.5358
    -9.6575  -9.5394  -8.8749  -8.8462  -8.2816  -8.0814  -6.4431  -6.1186
    -5.8116  -5.7771  -4.8343  -4.6684  -3.9399  -3.7706   2.6474   3.2843
     4.5856   4.6401

     occupation numbers 
     1.0000   1.0000   1.0000   1.0000   1.0000   1.0000   1.0000   1.0000
     1.0000   1.0000   1.0000   1.0000   1.0000   1.0000   1.0000   1.0000
     1.0000   1.0000   1.0000   1.0000   1.0000   1.0000   0.0000   0.0000
     0.0000   0.0000

          k = 0.2222 0.0000 0.0000 (339180 PWs)   bands (ev):

   -27.8653 -27.6224 -26.6594 -26.5476 -18.1984 -14.9499 -13.4535 -10.7346
   -10.6580 -10.1878 -10.0749  -8.7789  -8.7617  -7.7478  -7.2011  -6.2214
    -6.2161  -5.6456  -5.2523  -4.6727  -4.2690  -4.2415   1.6435   3.8187
     5.5377   6.0143

     occupation numbers 
     1.0000   1.0000   1.0000   1.0000   1.0000   1.0000   1.0000   1.0000
     1.0000   1.0000   1.0000   1.0000   1.0000   1.0000   1.0000   1.0000
     1.0000   1.0000   1.0000   1.0000   1.0000   1.0000   0.0000   0.0000
     0.0000   0.0000

          k = 0.2222 0.0697 0.0000 (339155 PWs)   bands (ev):

   -27.8405 -27.6047 -26.6855 -26.5730 -18.1400 -15.1932 -13.2673 -10.7188
   -10.6831 -10.2425  -9.9397  -8.9562  -8.5980  -7.8533  -7.1481  -6.2334
    -6.2028  -5.5604  -5.1965  -4.6693  -4.4080  -4.2378   1.7332   3.9779
     5.5091   6.0395

     occupation numbers 
     1.0000   1.0000   1.0000   1.0000   1.0000   1.0000   1.0000   1.0000
     1.0000   1.0000   1.0000   1.0000   1.0000   1.0000   1.0000   1.0000
     1.0000   1.0000   1.0000   1.0000   1.0000   1.0000   0.0000   0.0000
     0.0000   0.0000

          k = 0.2222 0.1394 0.0000 (339215 PWs)   bands (ev):

   -27.7700 -27.5583 -26.7547 -26.6434 -17.9662 -15.7067 -12.8969 -10.8389
   -10.6534 -10.3131  -9.6129  -9.1220  -8.4600  -8.1050  -6.9931  -6.2130
    -6.1695  -5.4580  -5.0759  -4.6570  -4.6524  -4.3040   1.9995   4.3738
     5.3212   5.9281

     occupation numbers 
     1.0000   1.0000   1.0000   1.0000   1.0000   1.0000   1.0000   1.0000
     1.0000   1.0000   1.0000   1.0000   1.0000   1.0000   1.0000   1.0000
     1.0000   1.0000   1.0000   1.0000   1.0000   1.0000   0.0000   0.0000
     0.0000   0.0000

          k = 0.2222 0.2091 0.0000 (339161 PWs)   bands (ev):

   -27.6675 -27.5067 -26.8366 -26.7413 -17.6818 -16.2769 -12.4891 -11.1847
   -10.5384 -10.3096  -9.2782  -9.2297  -8.3732  -8.3553  -6.7451  -6.1438
    -6.1149  -5.5921  -5.0056  -4.8669  -4.5824  -4.3605   2.4319   4.3749
     5.3012   5.9334

     occupation numbers 
     1.0000   1.0000   1.0000   1.0000   1.0000   1.0000   1.0000   1.0000
     1.0000   1.0000   1.0000   1.0000   1.0000   1.0000   1.0000   1.0000
     1.0000   1.0000   1.0000   1.0000   1.0000   1.0000   0.0000   0.0000
     0.0000   0.0000

          k = 0.2222 0.2788 0.0000 (339103 PWs)   bands (ev):

   -27.5608 -27.4965 -26.8765 -26.8350 -17.2951 -16.8194 -12.0617 -11.6175
   -10.4096 -10.3222  -9.2352  -9.1718  -8.4199  -8.3642  -6.4177  -6.1307
    -6.0407  -5.9103  -5.0140  -4.9863  -4.4676  -4.3917   3.0110   3.6997
     5.7560   6.0250

     occupation numbers 
     1.0000   1.0000   1.0000   1.0000   1.0000   1.0000   1.0000   1.0000
     1.0000   1.0000   1.0000   1.0000   1.0000   1.0000   1.0000   1.0000
     1.0000   1.0000   1.0000   1.0000   1.0000   1.0000   0.0000   0.0000
     0.0000   0.0000

          k = 0.3333 0.0000 0.0000 (339220 PWs)   bands (ev):

   -27.5348 -27.3323 -26.7299 -26.6165 -17.4470 -14.2396 -13.9475 -11.4991
   -10.9806 -10.2688  -9.8298  -9.3684  -9.3493  -8.0925  -7.0380  -6.5413
    -6.3830  -6.2864  -5.8601  -4.9902  -4.8382  -4.5842   2.3900   4.0392
     5.5442   6.9371

     occupation numbers 
     1.0000   1.0000   1.0000   1.0000   1.0000   1.0000   1.0000   1.0000
     1.0000   1.0000   1.0000   1.0000   1.0000   1.0000   1.0000   1.0000
     1.0000   1.0000   1.0000   1.0000   1.0000   1.0000   0.0000   0.0000
     0.0000   0.0000

          k = 0.3333 0.0697 0.0000 (339199 PWs)   bands (ev):

   -27.5167 -27.3201 -26.7452 -26.6325 -17.3918 -14.5518 -13.7584 -11.3970
   -11.1609 -10.2993  -9.7618  -9.5418  -9.0660  -8.1950  -6.9617  -6.5905
    -6.3904  -6.1508  -5.7384  -5.1422  -4.8081  -4.5391   2.4518   4.1384
     5.4963   6.9213

     occupation numbers 
     1.0000   1.0000   1.0000   1.0000   1.0000   1.0000   1.0000   1.0000
     1.0000   1.0000   1.0000   1.0000   1.0000   1.0000   1.0000   1.0000
     1.0000   1.0000   1.0000   1.0000   1.0000   1.0000   0.0000   0.0000
     0.0000   0.0000

          k = 0.3333 0.1394 0.0000 (339211 PWs)   bands (ev):

   -27.4653 -27.2889 -26.7854 -26.6775 -17.2275 -15.0672 -13.5219 -11.5744
   -11.1759 -10.3953  -9.6163  -9.6154  -8.7566  -8.3652  -6.8371  -6.6006
    -6.3599  -5.8797  -5.5119  -5.4172  -4.7340  -4.5368   2.6465   4.3935
     5.3284   6.2916

     occupation numbers 
     1.0000   1.0000   1.0000   1.0000   1.0000   1.0000   1.0000   1.0000
     1.0000   1.0000   1.0000   1.0000   1.0000   1.0000   1.0000   1.0000
     1.0000   1.0000   1.0000   1.0000   1.0000   1.0000   0.0000   0.0000
     0.0000   0.0000

          k = 0.3333 0.2091 0.0000 (339238 PWs)   bands (ev):

   -27.3907 -27.2570 -26.8306 -26.7418 -16.9579 -15.6169 -13.2551 -12.0568
   -10.9529 -10.5121  -9.6464  -9.5478  -8.5115  -8.4124  -6.7655  -6.4288
    -6.3773  -5.6600  -5.5962  -5.3482  -4.6559  -4.5998   2.9924   4.5318
     5.1442   5.8793

     occupation numbers 
     1.0000   1.0000   1.0000   1.0000   1.0000   1.0000   1.0000   1.0000
     1.0000   1.0000   1.0000   1.0000   1.0000   1.0000   1.0000   1.0000
     1.0000   1.0000   1.0000   1.0000   1.0000   1.0000   0.0000   0.0000
     0.0000   0.0000

          k = 0.3333 0.2788 0.0000 (339255 PWs)   bands (ev):

   -27.3116 -27.2586 -26.8446 -26.8073 -16.5903 -16.1365 -12.9243 -12.5204
   -10.7706 -10.6302  -9.6438  -9.5946  -8.3760  -8.3628  -6.6616  -6.5075
    -6.1472  -5.8639  -5.4136  -5.3201  -4.6262  -4.6188   3.4918   4.0859
     5.3205   5.5705

     occupation numbers 
     1.0000   1.0000   1.0000   1.0000   1.0000   1.0000   1.0000   1.0000
     1.0000   1.0000   1.0000   1.0000   1.0000   1.0000   1.0000   1.0000
     1.0000   1.0000   1.0000   1.0000   1.0000   1.0000   0.0000   0.0000
     0.0000   0.0000

          k = 0.4444 0.0000 0.0000 (339270 PWs)   bands (ev):

   -27.1873 -27.0266 -26.9034 -26.7746 -16.4205 -15.1723 -13.2953 -12.1685
   -11.2401 -10.6112  -9.6359  -9.5140  -9.2042  -8.6156  -7.1616  -6.8997
    -6.3601  -6.2214  -6.1202  -5.5730  -4.9440  -4.8758   3.2728   4.3492
     4.7535   5.8826

     occupation numbers 
     1.0000   1.0000   1.0000   1.0000   1.0000   1.0000   1.0000   1.0000
     1.0000   1.0000   1.0000   1.0000   1.0000   1.0000   1.0000   1.0000
     1.0000   1.0000   1.0000   1.0000   1.0000   1.0000   0.0000   0.0000
     0.0000   0.0000

          k = 0.4444 0.0697 0.0000 (339264 PWs)   bands (ev):

   -27.1789 -27.0236 -26.9051 -26.7797 -16.3708 -15.1394 -13.4907 -12.3772
   -11.1122 -10.5328  -9.6752  -9.6557  -9.0105  -8.6232  -7.0391  -6.7813
    -6.4609  -6.4014  -5.8964  -5.6284  -4.8866  -4.7998   3.3169   4.3716
     4.7517   5.7338

     occupation numbers 
     1.0000   1.0000   1.0000   1.0000   1.0000   1.0000   1.0000   1.0000
     1.0000   1.0000   1.0000   1.0000   1.0000   1.0000   1.0000   1.0000
     1.0000   1.0000   1.0000   1.0000   1.0000   1.0000   0.0000   0.0000
     0.0000   0.0000

          k = 0.4444 0.1394 0.0000 (339258 PWs)   bands (ev):

   -27.1555 -27.0190 -26.9066 -26.7947 -16.2232 -15.0594 -13.9005 -12.8350
   -10.8815 -10.4466  -9.8642  -9.7407  -8.7137  -8.5586  -6.7860  -6.6670
    -6.5681  -6.4481  -5.6797  -5.6623  -4.7655  -4.6987   3.4581   4.4245
     4.7797   5.4572

     occupation numbers 
     1.0000   1.0000   1.0000   1.0000   1.0000   1.0000   1.0000   1.0000
     1.0000   1.0000   1.0000   1.0000   1.0000   1.0000   1.0000   1.0000
     1.0000   1.0000   1.0000   1.0000   1.0000   1.0000   0.0000   0.0000
     0.0000   0.0000

          k = 0.4444 0.2091 0.0000 (339258 PWs)   bands (ev):

   -27.1214 -27.0247 -26.8985 -26.8180 -15.9824 -15.0471 -14.2130 -13.3417
   -10.7075 -10.4675  -9.9582  -9.8665  -8.4594  -8.4101  -6.8921  -6.7453
    -6.3590  -6.0783  -5.6420  -5.5431  -4.6784  -4.6757   3.7035   4.3997
     4.9438   5.2475

     occupation numbers 
     1.0000   1.0000   1.0000   1.0000   1.0000   1.0000   1.0000   1.0000
     1.0000   1.0000   1.0000   1.0000   1.0000   1.0000   1.0000   1.0000
     1.0000   1.0000   1.0000   1.0000   1.0000   1.0000   0.0000   0.0000
     0.0000   0.0000

          k = 0.4444 0.2788 0.0000 (339219 PWs)   bands (ev):

   -27.0829 -27.0478 -26.8764 -26.8470 -15.6612 -15.2998 -14.1386 -13.7993
   -10.6066 -10.5364  -9.9819  -9.9554  -8.3136  -8.3019  -6.9490  -6.8944
    -5.9927  -5.7775  -5.6818  -5.5432  -4.6858  -4.6687   4.0052   4.2551
     5.1339   5.1743

     occupation numbers 
     1.0000   1.0000   1.0000   1.0000   1.0000   1.0000   1.0000   1.0000
     1.0000   1.0000   1.0000   1.0000   1.0000   1.0000   1.0000   1.0000
     1.0000   1.0000   1.0000   1.0000   1.0000   1.0000   0.0000   0.0000
     0.0000   0.0000

     the Fermi energy is    -0.4824 ev

!    total energy              =    -240.24743650 Ry
     estimated scf accuracy    <          2.5E-09 Ry
     smearing contrib. (-TS)   =      -0.00000000 Ry
     internal energy E=F+TS    =    -240.24743650 Ry

     The total energy is F=E-TS. E is the sum of the following terms:
     one-electron contribution =   -1256.48207705 Ry
     hartree contribution      =     642.01123201 Ry
     xc contribution           =     -51.69326416 Ry
     ewald contribution        =     425.91667271 Ry

     convergence has been achieved in  10 iterations

     negative rho (up, down):  1.335E-06 0.000E+00

     Forces acting on atoms (cartesian axes, Ry/au):

     atom    1 type  1   force =     0.00000000   -0.00004340   -0.00000637
     atom    2 type  1   force =     0.00000000   -0.00004340    0.00000637
     atom    3 type  1   force =     0.00000000    0.00004340   -0.00000637
     atom    4 type  1   force =     0.00000000    0.00004340    0.00000637
     atom    5 type  2   force =     0.00000000   -0.00003054   -0.00002982
     atom    6 type  2   force =     0.00000000   -0.00003054    0.00002982
     atom    7 type  2   force =     0.00000000    0.00003054   -0.00002982
     atom    8 type  2   force =     0.00000000    0.00003054    0.00002982
     The non-local contrib.  to forces
     atom    1 type  1   force =    -0.00000000   -0.16223948    0.36788694
     atom    2 type  1   force =     0.00000000   -0.16223948   -0.36788694
     atom    3 type  1   force =     0.00000000    0.16223948    0.36788694
     atom    4 type  1   force =     0.00000000    0.16223948   -0.36788694
     atom    5 type  2   force =     0.00000000   -0.97074002    2.28338765
     atom    6 type  2   force =     0.00000000   -0.97074002   -2.28338765
     atom    7 type  2   force =    -0.00000000    0.97074002    2.28338765
     atom    8 type  2   force =     0.00000000    0.97074002   -2.28338765
     The ionic contribution  to forces
     atom    1 type  1   force =     0.00000000    0.91439883    2.68704709
     atom    2 type  1   force =     0.00000000    0.91439883   -2.68704709
     atom    3 type  1   force =    -0.00000000   -0.91439883    2.68704709
     atom    4 type  1   force =    -0.00000000   -0.91439883   -2.68704709
     atom    5 type  2   force =     0.00000000    4.28250416  -44.49509369
     atom    6 type  2   force =     0.00000000    4.28250416   44.49509369
     atom    7 type  2   force =    -0.00000000   -4.28250416  -44.49509369
     atom    8 type  2   force =     0.00000000   -4.28250416   44.49509369
     The local contribution  to forces
     atom    1 type  1   force =     0.00000000   -0.75317209   -3.05229538
     atom    2 type  1   force =     0.00000000   -0.75317209    3.05229538
     atom    3 type  1   force =    -0.00000000    0.75317209   -3.05229538
     atom    4 type  1   force =    -0.00000000    0.75317209    3.05229538
     atom    5 type  2   force =     0.00000000   -3.31182318   42.21179235
     atom    6 type  2   force =     0.00000000   -3.31182318  -42.21179235
     atom    7 type  2   force =     0.00000000    3.31182318   42.21179235
     atom    8 type  2   force =     0.00000000    3.31182318  -42.21179235
     The core correction contribution to forces
     atom    1 type  1   force =     0.00000000    0.00097314   -0.00267333
     atom    2 type  1   force =     0.00000000    0.00097314    0.00267333
     atom    3 type  1   force =    -0.00000000   -0.00097314   -0.00267333
     atom    4 type  1   force =    -0.00000000   -0.00097314    0.00267333
     atom    5 type  2   force =     0.00000000    0.00000000    0.00000000
     atom    6 type  2   force =     0.00000000    0.00000000    0.00000000
     atom    7 type  2   force =     0.00000000    0.00000000    0.00000000
     atom    8 type  2   force =     0.00000000    0.00000000    0.00000000
     The Hubbard contrib.    to forces
     atom    1 type  1   force =     0.00000000    0.00000000    0.00000000
     atom    2 type  1   force =     0.00000000    0.00000000    0.00000000
     atom    3 type  1   force =     0.00000000    0.00000000    0.00000000
     atom    4 type  1   force =     0.00000000    0.00000000    0.00000000
     atom    5 type  2   force =     0.00000000    0.00000000    0.00000000
     atom    6 type  2   force =     0.00000000    0.00000000    0.00000000
     atom    7 type  2   force =     0.00000000    0.00000000    0.00000000
     atom    8 type  2   force =     0.00000000    0.00000000    0.00000000
     The SCF correction term to forces
     atom    1 type  1   force =    -0.00000000   -0.00000379    0.00002831
     atom    2 type  1   force =    -0.00000000   -0.00000379   -0.00002831
     atom    3 type  1   force =    -0.00000000    0.00000379    0.00002831
     atom    4 type  1   force =    -0.00000000    0.00000379   -0.00002831
     atom    5 type  2   force =     0.00000000    0.00002849   -0.00011613
     atom    6 type  2   force =    -0.00000000    0.00002849    0.00011613
     atom    7 type  2   force =    -0.00000000   -0.00002849   -0.00011613
     atom    8 type  2   force =    -0.00000000   -0.00002849    0.00011613

     Total force =     0.000122     Total SCF correction =     0.000246
     SCF correction compared to forces is large: reduce conv_thr to get better values


     Computing stress (Cartesian axis) and pressure


     negative rho (up, down):  1.335E-06 0.000E+00
          total   stress  (Ry/bohr**3)                   (kbar)     P=       -0.05
  -0.00000064   0.00000000   0.00000000           -0.09        0.00        0.00
   0.00000000  -0.00000032   0.00000000            0.00       -0.05        0.00
   0.00000000   0.00000000  -0.00000013            0.00        0.00       -0.02

     kinetic stress (kbar)   9135.58      0.00      0.00
                                0.00   8958.53      0.00
                                0.00      0.00   8301.44

     local   stress (kbar)-161108.17      0.00     -0.00
                                0.00-162214.31     -0.00
                               -0.00     -0.00 155410.92

     nonloc. stress (kbar)   1180.26      0.00      0.00
                                0.00   1137.47      0.00
                                0.00      0.00    963.81

     hartree stress (kbar)  80821.34     -0.00      0.00
                               -0.00  81109.51     -0.00
                                0.00     -0.00 -74841.86

     exc-cor stress (kbar)  -2141.77      0.00      0.00
                                0.00  -2137.82      0.00
                                0.00      0.00  -2131.14

     corecor stress (kbar)    -73.64     -0.00      0.00
                               -0.00    -73.49      0.00
                                0.00     -0.00    -72.52

     ewald   stress (kbar)  72186.31     -0.00      0.00
                               -0.00  73220.06      0.00
                                0.00      0.00 -87630.66

     hubbard stress (kbar)      0.00      0.00      0.00
                                0.00      0.00      0.00
                                0.00      0.00      0.00

     DFT-D   stress (kbar)      0.00      0.00      0.00
                                0.00      0.00      0.00
                                0.00      0.00      0.00

     XDM     stress (kbar)      0.00      0.00      0.00
                                0.00      0.00      0.00
                                0.00      0.00      0.00

     dft-nl  stress (kbar)      0.00      0.00      0.00
                                0.00      0.00      0.00
                                0.00      0.00      0.00

     TS-vdW  stress (kbar)      0.00      0.00      0.00
                                0.00      0.00      0.00
                                0.00      0.00      0.00

     MDB     stress (kbar)      0.00      0.00      0.00
                                0.00      0.00      0.00
                                0.00      0.00      0.00

     3D-RISM stress (kbar)      0.00      0.00      0.00
                                0.00      0.00      0.00
                                0.00      0.00      0.00


     Writing all to output data dir ../tmp/fgz.save/

     init_run     :     32.71s CPU     48.18s WALL (       1 calls)
     electrons    :   1325.75s CPU   1991.89s WALL (       1 calls)
     forces       :     28.63s CPU     47.63s WALL (       1 calls)
     stress       :     20.54s CPU     37.47s WALL (       1 calls)

     Called by init_run:
     wfcinit      :     30.25s CPU     45.61s WALL (       1 calls)
     wfcinit:atom :      0.05s CPU      0.08s WALL (      25 calls)
     wfcinit:wfcr :     29.30s CPU     44.27s WALL (      25 calls)
     potinit      :      0.32s CPU      0.34s WALL (       1 calls)
     hinit0       :      0.88s CPU      0.90s WALL (       1 calls)

     Called by electrons:
     c_bands      :   1262.86s CPU   1876.69s WALL (      10 calls)
     sum_band     :     58.72s CPU    109.30s WALL (      10 calls)
     v_of_rho     :      0.79s CPU      0.80s WALL (      11 calls)
     v_h          :      0.05s CPU      0.05s WALL (      11 calls)
     v_xc         :      0.85s CPU      0.87s WALL (      13 calls)
     newd         :      3.17s CPU      4.32s WALL (      11 calls)
     mix_rho      :      0.31s CPU      0.29s WALL (      10 calls)

     Called by c_bands:
     init_us_2    :      0.89s CPU      1.51s WALL (     575 calls)
     init_us_2:cp :      0.89s CPU      1.50s WALL (     575 calls)
     cegterg      :   1219.23s CPU   1809.34s WALL (     250 calls)

     Called by sum_band:
     sum_band:wei :      0.00s CPU      0.00s WALL (      10 calls)
     sum_band:loo :     55.00s CPU    102.80s WALL (      10 calls)
     sum_band:buf :      0.10s CPU      0.26s WALL (     250 calls)
     sum_band:ini :      0.34s CPU      0.53s WALL (     250 calls)
     sum_band:cal :     43.24s CPU     87.54s WALL (     250 calls)
     sum_band:bec :      0.00s CPU      0.00s WALL (     250 calls)
     addusdens    :      2.34s CPU      4.55s WALL (      10 calls)
     addusd:skk   :      0.01s CPU      0.03s WALL (      20 calls)
     addusd:dgemm :      1.30s CPU      2.90s WALL (      20 calls)
     addusd:qvan2 :      0.97s CPU      1.57s WALL (      20 calls)

     Called by *egterg:
     cdiaghg      :    130.83s CPU     63.91s WALL (    1132 calls)
     cegterg:over :    341.60s CPU    506.99s WALL (     882 calls)
     cegterg:upda :     58.19s CPU     91.03s WALL (     882 calls)
     cegterg:last :     60.90s CPU     97.54s WALL (     561 calls)
     h_psi        :    383.44s CPU    675.37s WALL (    1157 calls)
     s_psi        :     18.51s CPU     33.71s WALL (    1157 calls)
     g_psi        :      0.44s CPU      0.29s WALL (     882 calls)

     Called by h_psi:
     h_psi:calbec :    212.32s CPU    393.22s WALL (    1157 calls)
     vloc_psi     :     95.15s CPU    100.80s WALL (    1157 calls)
     add_vuspsi   :     75.48s CPU    180.40s WALL (    1157 calls)

     General routines
     calbec       :    291.94s CPU    540.15s WALL (    1532 calls)
     fft          :      1.28s CPU      1.34s WALL (     146 calls)
     ffts         :      0.06s CPU      0.07s WALL (      10 calls)
     fftw         :    101.23s CPU    107.34s WALL (   42978 calls)

     Parallel routines

     PWSCF        :  23m29.35s CPU  35m41.39s WALL


   This run was terminated on:   4:26:39  20Jan2024            

=------------------------------------------------------------------------------=
   JOB DONE.
=------------------------------------------------------------------------------=
