
     Program PWSCF v.7.1 starts on 20Jan2024 at  5:34:45 

     This program is part of the open-source Quantum ESPRESSO suite
     for quantum simulation of materials; please cite
         "P. Giannozzi et al., J. Phys.:Condens. Matter 21 395502 (2009);
         "P. Giannozzi et al., J. Phys.:Condens. Matter 29 465901 (2017);
         "P. Giannozzi et al., J. Chem. Phys. 152 154105 (2020);
          URL http://www.quantum-espresso.org", 
     in publications or presentations arising from this work. More details at
     http://www.quantum-espresso.org/quote

     Parallel version (MPI), running on    50 processors

     MPI processes distributed on     1 nodes
     343683 MiB available memory on the printing compute node when the environment starts

     Reading input from kpoint.15.in

     Current dimensions of program PWSCF are:
     Max number of different atomic species (ntypx) = 10
     Max number of k-points (npk) =  40000
     Max angular momentum in pseudopotentials (lmaxx) =  4
     Message from routine setup:
     using ibrav=0 with symmetry is DISCOURAGED, use correct ibrav instead

     R & G space division:  proc/nbgrp/npool/nimage =      50
     Subspace diagonalization in iterative solution of the eigenvalue problem:
     a serial algorithm will be used


     Parallelization info
     --------------------
     sticks:   dense  smooth     PW     G-vecs:    dense   smooth      PW
     Min         175     175     46                54253    54253    7332
     Max         176     176     47                54271    54271    7349
     Sum        8763    8763   2311              2713169  2713169  366769

     Using Slab Decomposition



     bravais-lattice index     =            0
     lattice parameter (alat)  =       4.9702  a.u.
     unit-cell volume          =    1084.4437 (a.u.)^3
     number of atoms/cell      =            8
     number of atomic types    =            2
     number of electrons       =        44.00
     number of Kohn-Sham states=           26
     kinetic-energy cutoff     =     700.0000  Ry
     charge density cutoff     =    2800.0000  Ry
     scf convergence threshold =      1.0E-08
     mixing beta               =       0.7000
     number of iterations used =            8  plain     mixing
     Exchange-correlation=  SLA  PW   PBX  PBC
                           (   1   4   3   4   0   0   0)

     celldm(1)=   4.970237  celldm(2)=   0.000000  celldm(3)=   0.000000
     celldm(4)=   0.000000  celldm(5)=   0.000000  celldm(6)=   0.000000

     crystal axes: (cart. coord. in units of alat)
               a(1) = (   1.000000   0.000000   0.000000 )  
               a(2) = (   0.000000   1.594189   0.000000 )  
               a(3) = (   0.000000   0.000000   5.540333 )  

     reciprocal axes: (cart. coord. in units 2 pi/alat)
               b(1) = (  1.000000  0.000000  0.000000 )  
               b(2) = (  0.000000  0.627278  0.000000 )  
               b(3) = (  0.000000  0.000000  0.180495 )  


     PseudoPot. # 1 for C  read from file:
     ../pseudo/c_pbe_v1.2.uspp.F.UPF
     MD5 check sum: d1aef80898a10debaa0f26306b886e00
     Pseudo is Ultrasoft + core correction, Zval =  4.0
     Generated by new atomic code, or converted to UPF format
     Using radial grid of  721 points,  4 beta functions with: 
                l(1) =   0
                l(2) =   0
                l(3) =   1
                l(4) =   1
     Q(r) pseudized with  8 coefficients,  rinner =    1.100   1.100   1.100


     PseudoPot. # 2 for F  read from file:
     ../pseudo/f_pbe_v1.4.uspp.F.UPF
     MD5 check sum: 4c38b6a325caf53ec0e86aed9459de46
     Pseudo is Ultrasoft, Zval =  7.0
     Generated by new atomic code, or converted to UPF format
     Using radial grid of  799 points,  4 beta functions with: 
                l(1) =   0
                l(2) =   0
                l(3) =   1
                l(4) =   1
     Q(r) pseudized with  8 coefficients,  rinner =    0.950   0.950   0.950


     atomic species   valence    mass     pseudopotential
        C              4.00    12.01070     C ( 1.00)
        F              7.00    18.99840     F ( 1.00)

      8 Sym. Ops., with inversion, found ( 4 have fractional translation)


                                    s                        frac. trans.

      isym =  1     identity                                     

 cryst.   s( 1) = (     1          0          0      )
                  (     0          1          0      )
                  (     0          0          1      )

 cart.    s( 1) = (  1.0000000  0.0000000  0.0000000 )
                  (  0.0000000  1.0000000  0.0000000 )
                  (  0.0000000  0.0000000  1.0000000 )


      isym =  2     180 deg rotation - cart. axis [0,0,1]        

 cryst.   s( 2) = (    -1          0          0      )    f =(  0.5000000 )
                  (     0         -1          0      )       (  0.5000000 )
                  (     0          0          1      )       (  0.0000000 )

 cart.    s( 2) = ( -1.0000000  0.0000000  0.0000000 )    f =(  0.5000000 )
                  (  0.0000000 -1.0000000  0.0000000 )       (  0.7970945 )
                  (  0.0000000  0.0000000  1.0000000 )       (  0.0000000 )


      isym =  3     180 deg rotation - cart. axis [0,1,0]        

 cryst.   s( 3) = (    -1          0          0      )    f =(  0.5000000 )
                  (     0          1          0      )       ( -0.5000000 )
                  (     0          0         -1      )       (  0.0000000 )

 cart.    s( 3) = ( -1.0000000  0.0000000  0.0000000 )    f =(  0.5000000 )
                  (  0.0000000  1.0000000  0.0000000 )       ( -0.7970945 )
                  (  0.0000000  0.0000000 -1.0000000 )       (  0.0000000 )


      isym =  4     180 deg rotation - cart. axis [1,0,0]        

 cryst.   s( 4) = (     1          0          0      )
                  (     0         -1          0      )
                  (     0          0         -1      )

 cart.    s( 4) = (  1.0000000  0.0000000  0.0000000 )
                  (  0.0000000 -1.0000000  0.0000000 )
                  (  0.0000000  0.0000000 -1.0000000 )


      isym =  5     inversion                                    

 cryst.   s( 5) = (    -1          0          0      )
                  (     0         -1          0      )
                  (     0          0         -1      )

 cart.    s( 5) = ( -1.0000000  0.0000000  0.0000000 )
                  (  0.0000000 -1.0000000  0.0000000 )
                  (  0.0000000  0.0000000 -1.0000000 )


      isym =  6     inv. 180 deg rotation - cart. axis [0,0,1]   

 cryst.   s( 6) = (     1          0          0      )    f =(  0.5000000 )
                  (     0          1          0      )       ( -0.5000000 )
                  (     0          0         -1      )       (  0.0000000 )

 cart.    s( 6) = (  1.0000000  0.0000000  0.0000000 )    f =(  0.5000000 )
                  (  0.0000000  1.0000000  0.0000000 )       ( -0.7970945 )
                  (  0.0000000  0.0000000 -1.0000000 )       (  0.0000000 )


      isym =  7     inv. 180 deg rotation - cart. axis [0,1,0]   

 cryst.   s( 7) = (     1          0          0      )    f =(  0.5000000 )
                  (     0         -1          0      )       (  0.5000000 )
                  (     0          0          1      )       (  0.0000000 )

 cart.    s( 7) = (  1.0000000  0.0000000  0.0000000 )    f =(  0.5000000 )
                  (  0.0000000 -1.0000000  0.0000000 )       (  0.7970945 )
                  (  0.0000000  0.0000000  1.0000000 )       (  0.0000000 )


      isym =  8     inv. 180 deg rotation - cart. axis [1,0,0]   

 cryst.   s( 8) = (    -1          0          0      )
                  (     0          1          0      )
                  (     0          0          1      )

 cart.    s( 8) = ( -1.0000000  0.0000000  0.0000000 )
                  (  0.0000000  1.0000000  0.0000000 )
                  (  0.0000000  0.0000000  1.0000000 )


   Cartesian axes

     site n.     atom                  positions (alat units)
         1           C   tau(   1) = (   0.5000000   0.2256478   0.1937169  )
         2           C   tau(   2) = (   0.0000000   1.0227422  -0.1937169  )
         3           C   tau(   3) = (   0.0000000   0.5714467   0.1937169  )
         4           C   tau(   4) = (   0.5000000   1.3685411  -0.1937169  )
         5           F   tau(   5) = (   0.5000000  -0.0095812  -0.6719762  )
         6           F   tau(   6) = (   0.0000000   0.7875132   0.6719762  )
         7           F   tau(   7) = (   0.0000000   0.8066757  -0.6719762  )
         8           F   tau(   8) = (   0.5000000   0.0095812   0.6719762  )

   Crystallographic axes

     site n.     atom                  positions (cryst. coord.)
         1           C   tau(   1) = (  0.5000000  0.1415439  0.0349649  )
         2           C   tau(   2) = (  0.0000000  0.6415439 -0.0349649  )
         3           C   tau(   3) = (  0.0000000  0.3584561  0.0349649  )
         4           C   tau(   4) = (  0.5000000  0.8584561 -0.0349649  )
         5           F   tau(   5) = (  0.5000000 -0.0060101 -0.1212881  )
         6           F   tau(   6) = (  0.0000000  0.4939899  0.1212881  )
         7           F   tau(   7) = (  0.0000000  0.5060101 -0.1212881  )
         8           F   tau(   8) = (  0.5000000  0.0060101  0.1212881  )

     number of k points=    64  Marzari-Vanderbilt smearing, width (Ry)=  0.0200
                       cart. coord. in units 2pi/alat
        k(    1) = (   0.0000000   0.0000000   0.0000000), wk =   0.0088889
        k(    2) = (   0.0000000   0.0418185   0.0000000), wk =   0.0177778
        k(    3) = (   0.0000000   0.0836371   0.0000000), wk =   0.0177778
        k(    4) = (   0.0000000   0.1254556   0.0000000), wk =   0.0177778
        k(    5) = (   0.0000000   0.1672742   0.0000000), wk =   0.0177778
        k(    6) = (   0.0000000   0.2090927   0.0000000), wk =   0.0177778
        k(    7) = (   0.0000000   0.2509113   0.0000000), wk =   0.0177778
        k(    8) = (   0.0000000   0.2927298   0.0000000), wk =   0.0177778
        k(    9) = (   0.0666667   0.0000000   0.0000000), wk =   0.0177778
        k(   10) = (   0.0666667   0.0418185   0.0000000), wk =   0.0355556
        k(   11) = (   0.0666667   0.0836371   0.0000000), wk =   0.0355556
        k(   12) = (   0.0666667   0.1254556   0.0000000), wk =   0.0355556
        k(   13) = (   0.0666667   0.1672742   0.0000000), wk =   0.0355556
        k(   14) = (   0.0666667   0.2090927   0.0000000), wk =   0.0355556
        k(   15) = (   0.0666667   0.2509113   0.0000000), wk =   0.0355556
        k(   16) = (   0.0666667   0.2927298   0.0000000), wk =   0.0355556
        k(   17) = (   0.1333333   0.0000000   0.0000000), wk =   0.0177778
        k(   18) = (   0.1333333   0.0418185   0.0000000), wk =   0.0355556
        k(   19) = (   0.1333333   0.0836371   0.0000000), wk =   0.0355556
        k(   20) = (   0.1333333   0.1254556   0.0000000), wk =   0.0355556
        k(   21) = (   0.1333333   0.1672742   0.0000000), wk =   0.0355556
        k(   22) = (   0.1333333   0.2090927   0.0000000), wk =   0.0355556
        k(   23) = (   0.1333333   0.2509113   0.0000000), wk =   0.0355556
        k(   24) = (   0.1333333   0.2927298   0.0000000), wk =   0.0355556
        k(   25) = (   0.2000000   0.0000000   0.0000000), wk =   0.0177778
        k(   26) = (   0.2000000   0.0418185   0.0000000), wk =   0.0355556
        k(   27) = (   0.2000000   0.0836371   0.0000000), wk =   0.0355556
        k(   28) = (   0.2000000   0.1254556   0.0000000), wk =   0.0355556
        k(   29) = (   0.2000000   0.1672742   0.0000000), wk =   0.0355556
        k(   30) = (   0.2000000   0.2090927   0.0000000), wk =   0.0355556
        k(   31) = (   0.2000000   0.2509113   0.0000000), wk =   0.0355556
        k(   32) = (   0.2000000   0.2927298   0.0000000), wk =   0.0355556
        k(   33) = (   0.2666667   0.0000000   0.0000000), wk =   0.0177778
        k(   34) = (   0.2666667   0.0418185   0.0000000), wk =   0.0355556
        k(   35) = (   0.2666667   0.0836371   0.0000000), wk =   0.0355556
        k(   36) = (   0.2666667   0.1254556   0.0000000), wk =   0.0355556
        k(   37) = (   0.2666667   0.1672742   0.0000000), wk =   0.0355556
        k(   38) = (   0.2666667   0.2090927   0.0000000), wk =   0.0355556
        k(   39) = (   0.2666667   0.2509113   0.0000000), wk =   0.0355556
        k(   40) = (   0.2666667   0.2927298   0.0000000), wk =   0.0355556
        k(   41) = (   0.3333333   0.0000000   0.0000000), wk =   0.0177778
        k(   42) = (   0.3333333   0.0418185   0.0000000), wk =   0.0355556
        k(   43) = (   0.3333333   0.0836371   0.0000000), wk =   0.0355556
        k(   44) = (   0.3333333   0.1254556   0.0000000), wk =   0.0355556
        k(   45) = (   0.3333333   0.1672742   0.0000000), wk =   0.0355556
        k(   46) = (   0.3333333   0.2090927   0.0000000), wk =   0.0355556
        k(   47) = (   0.3333333   0.2509113   0.0000000), wk =   0.0355556
        k(   48) = (   0.3333333   0.2927298   0.0000000), wk =   0.0355556
        k(   49) = (   0.4000000   0.0000000   0.0000000), wk =   0.0177778
        k(   50) = (   0.4000000   0.0418185   0.0000000), wk =   0.0355556
        k(   51) = (   0.4000000   0.0836371   0.0000000), wk =   0.0355556
        k(   52) = (   0.4000000   0.1254556   0.0000000), wk =   0.0355556
        k(   53) = (   0.4000000   0.1672742   0.0000000), wk =   0.0355556
        k(   54) = (   0.4000000   0.2090927   0.0000000), wk =   0.0355556
        k(   55) = (   0.4000000   0.2509113   0.0000000), wk =   0.0355556
        k(   56) = (   0.4000000   0.2927298   0.0000000), wk =   0.0355556
        k(   57) = (   0.4666667   0.0000000   0.0000000), wk =   0.0177778
        k(   58) = (   0.4666667   0.0418185   0.0000000), wk =   0.0355556
        k(   59) = (   0.4666667   0.0836371   0.0000000), wk =   0.0355556
        k(   60) = (   0.4666667   0.1254556   0.0000000), wk =   0.0355556
        k(   61) = (   0.4666667   0.1672742   0.0000000), wk =   0.0355556
        k(   62) = (   0.4666667   0.2090927   0.0000000), wk =   0.0355556
        k(   63) = (   0.4666667   0.2509113   0.0000000), wk =   0.0355556
        k(   64) = (   0.4666667   0.2927298   0.0000000), wk =   0.0355556

                       cryst. coord.
        k(    1) = (   0.0000000   0.0000000   0.0000000), wk =   0.0088889
        k(    2) = (   0.0000000   0.0666667   0.0000000), wk =   0.0177778
        k(    3) = (   0.0000000   0.1333333   0.0000000), wk =   0.0177778
        k(    4) = (   0.0000000   0.2000000   0.0000000), wk =   0.0177778
        k(    5) = (   0.0000000   0.2666667   0.0000000), wk =   0.0177778
        k(    6) = (   0.0000000   0.3333333   0.0000000), wk =   0.0177778
        k(    7) = (   0.0000000   0.4000000   0.0000000), wk =   0.0177778
        k(    8) = (   0.0000000   0.4666667   0.0000000), wk =   0.0177778
        k(    9) = (   0.0666667   0.0000000   0.0000000), wk =   0.0177778
        k(   10) = (   0.0666667   0.0666667   0.0000000), wk =   0.0355556
        k(   11) = (   0.0666667   0.1333333   0.0000000), wk =   0.0355556
        k(   12) = (   0.0666667   0.2000000   0.0000000), wk =   0.0355556
        k(   13) = (   0.0666667   0.2666667   0.0000000), wk =   0.0355556
        k(   14) = (   0.0666667   0.3333333   0.0000000), wk =   0.0355556
        k(   15) = (   0.0666667   0.4000000   0.0000000), wk =   0.0355556
        k(   16) = (   0.0666667   0.4666667   0.0000000), wk =   0.0355556
        k(   17) = (   0.1333333   0.0000000   0.0000000), wk =   0.0177778
        k(   18) = (   0.1333333   0.0666667   0.0000000), wk =   0.0355556
        k(   19) = (   0.1333333   0.1333333   0.0000000), wk =   0.0355556
        k(   20) = (   0.1333333   0.2000000   0.0000000), wk =   0.0355556
        k(   21) = (   0.1333333   0.2666667   0.0000000), wk =   0.0355556
        k(   22) = (   0.1333333   0.3333333   0.0000000), wk =   0.0355556
        k(   23) = (   0.1333333   0.4000000   0.0000000), wk =   0.0355556
        k(   24) = (   0.1333333   0.4666667   0.0000000), wk =   0.0355556
        k(   25) = (   0.2000000   0.0000000   0.0000000), wk =   0.0177778
        k(   26) = (   0.2000000   0.0666667   0.0000000), wk =   0.0355556
        k(   27) = (   0.2000000   0.1333333   0.0000000), wk =   0.0355556
        k(   28) = (   0.2000000   0.2000000   0.0000000), wk =   0.0355556
        k(   29) = (   0.2000000   0.2666667   0.0000000), wk =   0.0355556
        k(   30) = (   0.2000000   0.3333333   0.0000000), wk =   0.0355556
        k(   31) = (   0.2000000   0.4000000   0.0000000), wk =   0.0355556
        k(   32) = (   0.2000000   0.4666667   0.0000000), wk =   0.0355556
        k(   33) = (   0.2666667   0.0000000   0.0000000), wk =   0.0177778
        k(   34) = (   0.2666667   0.0666667   0.0000000), wk =   0.0355556
        k(   35) = (   0.2666667   0.1333333   0.0000000), wk =   0.0355556
        k(   36) = (   0.2666667   0.2000000   0.0000000), wk =   0.0355556
        k(   37) = (   0.2666667   0.2666667   0.0000000), wk =   0.0355556
        k(   38) = (   0.2666667   0.3333333   0.0000000), wk =   0.0355556
        k(   39) = (   0.2666667   0.4000000   0.0000000), wk =   0.0355556
        k(   40) = (   0.2666667   0.4666667   0.0000000), wk =   0.0355556
        k(   41) = (   0.3333333   0.0000000   0.0000000), wk =   0.0177778
        k(   42) = (   0.3333333   0.0666667   0.0000000), wk =   0.0355556
        k(   43) = (   0.3333333   0.1333333   0.0000000), wk =   0.0355556
        k(   44) = (   0.3333333   0.2000000   0.0000000), wk =   0.0355556
        k(   45) = (   0.3333333   0.2666667   0.0000000), wk =   0.0355556
        k(   46) = (   0.3333333   0.3333333   0.0000000), wk =   0.0355556
        k(   47) = (   0.3333333   0.4000000   0.0000000), wk =   0.0355556
        k(   48) = (   0.3333333   0.4666667   0.0000000), wk =   0.0355556
        k(   49) = (   0.4000000   0.0000000   0.0000000), wk =   0.0177778
        k(   50) = (   0.4000000   0.0666667   0.0000000), wk =   0.0355556
        k(   51) = (   0.4000000   0.1333333   0.0000000), wk =   0.0355556
        k(   52) = (   0.4000000   0.2000000   0.0000000), wk =   0.0355556
        k(   53) = (   0.4000000   0.2666667   0.0000000), wk =   0.0355556
        k(   54) = (   0.4000000   0.3333333   0.0000000), wk =   0.0355556
        k(   55) = (   0.4000000   0.4000000   0.0000000), wk =   0.0355556
        k(   56) = (   0.4000000   0.4666667   0.0000000), wk =   0.0355556
        k(   57) = (   0.4666667   0.0000000   0.0000000), wk =   0.0177778
        k(   58) = (   0.4666667   0.0666667   0.0000000), wk =   0.0355556
        k(   59) = (   0.4666667   0.1333333   0.0000000), wk =   0.0355556
        k(   60) = (   0.4666667   0.2000000   0.0000000), wk =   0.0355556
        k(   61) = (   0.4666667   0.2666667   0.0000000), wk =   0.0355556
        k(   62) = (   0.4666667   0.3333333   0.0000000), wk =   0.0355556
        k(   63) = (   0.4666667   0.4000000   0.0000000), wk =   0.0355556
        k(   64) = (   0.4666667   0.4666667   0.0000000), wk =   0.0355556

     Dense  grid:  2713169 G-vectors     FFT dimensions: (  90, 144, 480)

     Dynamical RAM for                 wfc:       2.69 MB

     Dynamical RAM for     wfc (w. buffer):     174.92 MB

     Dynamical RAM for           str. fact:       1.66 MB

     Dynamical RAM for           local pot:       0.00 MB

     Dynamical RAM for          nlocal pot:       6.62 MB

     Dynamical RAM for                qrad:       2.42 MB

     Dynamical RAM for          rho,v,vnew:       5.45 MB

     Dynamical RAM for               rhoin:       1.82 MB

     Dynamical RAM for            rho*nmix:      13.25 MB

     Dynamical RAM for           G-vectors:       3.52 MB

     Dynamical RAM for          h,s,v(r/c):       0.12 MB

     Dynamical RAM for          <psi|beta>:       0.03 MB

     Dynamical RAM for                 psi:       5.38 MB

     Dynamical RAM for                hpsi:       5.38 MB

     Dynamical RAM for                spsi:       5.38 MB

     Dynamical RAM for      wfcinit/wfcrot:       6.65 MB

     Dynamical RAM for           addusdens:      38.92 MB

     Dynamical RAM for          addusforce:      44.30 MB

     Dynamical RAM for         addusstress:      41.40 MB

     Estimated static dynamical RAM per process >     203.83 MB

     Estimated max dynamical RAM per process >     261.38 MB

     Estimated total dynamical RAM >      12.76 GB

     Initial potential from superposition of free atoms

     starting charge      43.9998, renormalised to      44.0000

     negative rho (up, down):  6.060E-03 0.000E+00
     Starting wfcs are   32 randomized atomic wfcs

     total cpu time spent up to now is      119.7 secs

     Self-consistent Calculation

     iteration #  1     ecut=   700.00 Ry     beta= 0.70
     Davidson diagonalization with overlap

---- Real-time Memory Report at c_bands before calling an iterative solver
           248 MiB given to the printing process from OS
             0 MiB allocation reported by mallinfo(arena+hblkhd)
        332728 MiB available memory on the node where the printing process lives
------------------
     ethr =  1.00E-02,  avg # of iterations =  4.0

     negative rho (up, down):  1.630E-03 0.000E+00

     total cpu time spent up to now is      681.5 secs

     total energy              =    -240.10944842 Ry
     estimated scf accuracy    <       0.44464305 Ry

     iteration #  2     ecut=   700.00 Ry     beta= 0.70
     Davidson diagonalization with overlap

---- Real-time Memory Report at c_bands before calling an iterative solver
           292 MiB given to the printing process from OS
             0 MiB allocation reported by mallinfo(arena+hblkhd)
        330410 MiB available memory on the node where the printing process lives
------------------
     ethr =  1.01E-03,  avg # of iterations =  3.8

     negative rho (up, down):  1.011E-03 0.000E+00

     total cpu time spent up to now is     1219.6 secs

     total energy              =    -240.13063063 Ry
     estimated scf accuracy    <       0.43906797 Ry

     iteration #  3     ecut=   700.00 Ry     beta= 0.70
     Davidson diagonalization with overlap

---- Real-time Memory Report at c_bands before calling an iterative solver
           296 MiB given to the printing process from OS
             0 MiB allocation reported by mallinfo(arena+hblkhd)
        330276 MiB available memory on the node where the printing process lives
------------------
     ethr =  9.98E-04,  avg # of iterations =  2.2

     negative rho (up, down):  1.849E-04 0.000E+00

     total cpu time spent up to now is     1600.5 secs

     total energy              =    -240.24480071 Ry
     estimated scf accuracy    <       0.02088234 Ry

     iteration #  4     ecut=   700.00 Ry     beta= 0.70
     Davidson diagonalization with overlap

---- Real-time Memory Report at c_bands before calling an iterative solver
           298 MiB given to the printing process from OS
             0 MiB allocation reported by mallinfo(arena+hblkhd)
        330187 MiB available memory on the node where the printing process lives
------------------
     ethr =  4.75E-05,  avg # of iterations =  4.4

     negative rho (up, down):  3.274E-05 0.000E+00

     total cpu time spent up to now is     2163.5 secs

     total energy              =    -240.24707903 Ry
     estimated scf accuracy    <       0.00168137 Ry

     iteration #  5     ecut=   700.00 Ry     beta= 0.70
     Davidson diagonalization with overlap

---- Real-time Memory Report at c_bands before calling an iterative solver
           300 MiB given to the printing process from OS
             0 MiB allocation reported by mallinfo(arena+hblkhd)
        330089 MiB available memory on the node where the printing process lives
------------------
     ethr =  3.82E-06,  avg # of iterations =  6.3

     negative rho (up, down):  1.266E-06 0.000E+00

     total cpu time spent up to now is     2929.4 secs

     total energy              =    -240.24743007 Ry
     estimated scf accuracy    <       0.00002202 Ry

     iteration #  6     ecut=   700.00 Ry     beta= 0.70
     Davidson diagonalization with overlap

---- Real-time Memory Report at c_bands before calling an iterative solver
           302 MiB given to the printing process from OS
             0 MiB allocation reported by mallinfo(arena+hblkhd)
        329991 MiB available memory on the node where the printing process lives
------------------
     ethr =  5.00E-08,  avg # of iterations =  4.2

     negative rho (up, down):  1.345E-06 0.000E+00

     total cpu time spent up to now is     3512.9 secs

     total energy              =    -240.24744038 Ry
     estimated scf accuracy    <       0.00001886 Ry

     iteration #  7     ecut=   700.00 Ry     beta= 0.70
     Davidson diagonalization with overlap

---- Real-time Memory Report at c_bands before calling an iterative solver
           303 MiB given to the printing process from OS
             0 MiB allocation reported by mallinfo(arena+hblkhd)
        329885 MiB available memory on the node where the printing process lives
------------------
     ethr =  4.29E-08,  avg # of iterations =  1.9

     negative rho (up, down):  1.350E-06 0.000E+00

     total cpu time spent up to now is     3855.1 secs

     total energy              =    -240.24744130 Ry
     estimated scf accuracy    <       0.00000169 Ry

     iteration #  8     ecut=   700.00 Ry     beta= 0.70
     Davidson diagonalization with overlap

---- Real-time Memory Report at c_bands before calling an iterative solver
           305 MiB given to the printing process from OS
             0 MiB allocation reported by mallinfo(arena+hblkhd)
        329800 MiB available memory on the node where the printing process lives
------------------
     ethr =  3.83E-09,  avg # of iterations =  3.2

     negative rho (up, down):  1.353E-06 0.000E+00

     total cpu time spent up to now is     4340.6 secs

     total energy              =    -240.24744199 Ry
     estimated scf accuracy    <       0.00000054 Ry

     iteration #  9     ecut=   700.00 Ry     beta= 0.70
     Davidson diagonalization with overlap

---- Real-time Memory Report at c_bands before calling an iterative solver
           307 MiB given to the printing process from OS
             0 MiB allocation reported by mallinfo(arena+hblkhd)
        329727 MiB available memory on the node where the printing process lives
------------------
     ethr =  1.23E-09,  avg # of iterations =  2.0

     negative rho (up, down):  1.339E-06 0.000E+00

     total cpu time spent up to now is     4694.4 secs

     total energy              =    -240.24744206 Ry
     estimated scf accuracy    <       0.00000001 Ry

     iteration # 10     ecut=   700.00 Ry     beta= 0.70
     Davidson diagonalization with overlap

---- Real-time Memory Report at c_bands before calling an iterative solver
           308 MiB given to the printing process from OS
             0 MiB allocation reported by mallinfo(arena+hblkhd)
        329649 MiB available memory on the node where the printing process lives
------------------
     ethr =  3.04E-11,  avg # of iterations =  3.6

     negative rho (up, down):  1.335E-06 0.000E+00

     total cpu time spent up to now is     5224.7 secs

     End of self-consistent calculation

          k = 0.0000 0.0000 0.0000 (339089 PWs)   bands (ev):

   -28.1834 -27.9022 -26.6494 -26.5318 -18.8098 -15.5402 -13.5843 -11.1232
   -10.3489  -9.9809  -8.6995  -8.2805  -7.6842  -7.5566  -7.3229  -5.4480
    -5.3045  -5.2488  -4.5965  -4.2727  -4.0437  -2.7239   0.8195   3.2719
     3.3854   4.4163

     occupation numbers 
     1.0000   1.0000   1.0000   1.0000   1.0000   1.0000   1.0000   1.0000
     1.0000   1.0000   1.0000   1.0000   1.0000   1.0000   1.0000   1.0000
     1.0000   1.0000   1.0000   1.0000   1.0000   1.0000   0.0000   0.0000
     0.0000   0.0000

          k = 0.0000 0.0418 0.0000 (339155 PWs)   bands (ev):

   -28.1725 -27.8942 -26.6625 -26.5442 -18.7879 -15.6253 -13.5130 -11.1087
   -10.3073  -9.9943  -8.6818  -8.2850  -7.7191  -7.5213  -7.3279  -5.4656
    -5.3173  -5.2978  -4.6188  -4.2586  -4.0293  -2.7431   0.8716   3.2811
     3.3837   4.4834

     occupation numbers 
     1.0000   1.0000   1.0000   1.0000   1.0000   1.0000   1.0000   1.0000
     1.0000   1.0000   1.0000   1.0000   1.0000   1.0000   1.0000   1.0000
     1.0000   1.0000   1.0000   1.0000   1.0000   1.0000   0.0000   0.0000
     0.0000   0.0000

          k = 0.0000 0.0836 0.0000 (339061 PWs)   bands (ev):

   -28.1406 -27.8713 -26.7002 -26.5800 -18.7224 -15.8477 -13.3286 -11.0746
   -10.1885 -10.0250  -8.6291  -8.3002  -7.8163  -7.4234  -7.3448  -5.5138
    -5.4257  -5.3538  -4.6788  -4.2341  -3.9874  -2.7981   1.0219   3.3088
     3.3766   4.6792

     occupation numbers 
     1.0000   1.0000   1.0000   1.0000   1.0000   1.0000   1.0000   1.0000
     1.0000   1.0000   1.0000   1.0000   1.0000   1.0000   1.0000   1.0000
     1.0000   1.0000   1.0000   1.0000   1.0000   1.0000   0.0000   0.0000
     0.0000   0.0000

          k = 0.0000 0.1255 0.0000 (339075 PWs)   bands (ev):

   -28.0894 -27.8365 -26.7574 -26.6362 -18.6139 -16.1489 -13.0814 -11.0516
   -10.0418 -10.0084  -8.5434  -8.3309  -7.9700  -7.3790  -7.2714  -5.5969
    -5.5805  -5.4092  -4.7574  -4.2315  -3.9214  -2.8826   1.2549   3.3544
     3.3580   4.9899

     occupation numbers 
     1.0000   1.0000   1.0000   1.0000   1.0000   1.0000   1.0000   1.0000
     1.0000   1.0000   1.0000   1.0000   1.0000   1.0000   1.0000   1.0000
     1.0000   1.0000   1.0000   1.0000   1.0000   1.0000   0.0000   0.0000
     0.0000   0.0000

          k = 0.0000 0.1673 0.0000 (339049 PWs)   bands (ev):

   -28.0223 -27.7954 -26.8257 -26.7074 -18.4637 -16.4854 -12.8040 -11.0870
    -9.9970  -9.7893  -8.4279  -8.3843  -8.1729  -7.4379  -7.0776  -5.7815
    -5.6483  -5.4768  -4.8296  -4.2733  -3.8354  -2.9887   1.5498   3.3165
     3.4177   4.6046

     occupation numbers 
     1.0000   1.0000   1.0000   1.0000   1.0000   1.0000   1.0000   1.0000
     1.0000   1.0000   1.0000   1.0000   1.0000   1.0000   1.0000   1.0000
     1.0000   1.0000   1.0000   1.0000   1.0000   1.0000   0.0000   0.0000
     0.0000   0.0000

          k = 0.0000 0.2091 0.0000 (338975 PWs)   bands (ev):

   -27.9447 -27.7579 -26.8919 -26.7860 -18.2733 -16.8306 -12.5130 -11.2094
    -9.8637  -9.5572  -8.4677  -8.4105  -8.2876  -7.5279  -6.8618  -5.9606
    -5.6995  -5.5492  -4.8691  -4.3656  -3.7334  -3.1088   1.8841   3.2349
     3.4991   4.3676

     occupation numbers 
     1.0000   1.0000   1.0000   1.0000   1.0000   1.0000   1.0000   1.0000
     1.0000   1.0000   1.0000   1.0000   1.0000   1.0000   1.0000   1.0000
     1.0000   1.0000   1.0000   1.0000   1.0000   1.0000   0.0000   0.0000
     0.0000   0.0000

          k = 0.0000 0.2509 0.0000 (338902 PWs)   bands (ev):

   -27.8648 -27.7378 -26.9391 -26.8619 -18.0451 -17.1684 -12.2182 -11.4066
    -9.6593  -9.3492  -8.6517  -8.5837  -8.1296  -7.6502  -6.6483  -6.1271
    -5.7223  -5.6184  -4.8543  -4.4985  -3.6190  -3.2366   2.2340   3.0909
     3.6009   4.1150

     occupation numbers 
     1.0000   1.0000   1.0000   1.0000   1.0000   1.0000   1.0000   1.0000
     1.0000   1.0000   1.0000   1.0000   1.0000   1.0000   1.0000   1.0000
     1.0000   1.0000   1.0000   1.0000   1.0000   1.0000   0.0000   0.0000
     0.0000   0.0000

          k = 0.0000 0.2927 0.0000 (338928 PWs)   bands (ev):

   -27.7947 -27.7489 -26.9508 -26.9218 -17.7820 -17.4880 -11.9281 -11.6529
    -9.4274  -9.2692  -8.7929  -8.7190  -7.9628  -7.7989  -6.4559  -6.2869
    -5.7131  -5.6759  -4.7760  -4.6469  -3.4957  -3.3670   2.5725   2.8678
     3.7297   3.8977

     occupation numbers 
     1.0000   1.0000   1.0000   1.0000   1.0000   1.0000   1.0000   1.0000
     1.0000   1.0000   1.0000   1.0000   1.0000   1.0000   1.0000   1.0000
     1.0000   1.0000   1.0000   1.0000   1.0000   1.0000   0.0000   0.0000
     0.0000   0.0000

          k = 0.0667 0.0000 0.0000 (339181 PWs)   bands (ev):

   -28.1528 -27.8752 -26.6484 -26.5316 -18.7544 -15.4863 -13.5603 -11.0783
   -10.3213  -9.9871  -8.9781  -8.3151  -7.6494  -7.5218  -7.4996  -5.5843
    -5.4138  -5.2705  -4.6249  -4.2290  -4.1884  -2.9437   0.9098   3.7005
     3.7006   4.2327

     occupation numbers 
     1.0000   1.0000   1.0000   1.0000   1.0000   1.0000   1.0000   1.0000
     1.0000   1.0000   1.0000   1.0000   1.0000   1.0000   1.0000   1.0000
     1.0000   1.0000   1.0000   1.0000   1.0000   1.0000   0.0000   0.0000
     0.0000   0.0000

          k = 0.0667 0.0418 0.0000 (339135 PWs)   bands (ev):

   -28.1421 -27.8674 -26.6611 -26.5436 -18.7325 -15.5721 -13.4886 -11.0653
   -10.2819 -10.0006  -8.9605  -8.3212  -7.6850  -7.5057  -7.4854  -5.6138
    -5.4264  -5.2894  -4.6410  -4.2251  -4.1758  -2.9643   0.9592   3.6986
     3.7089   4.2935

     occupation numbers 
     1.0000   1.0000   1.0000   1.0000   1.0000   1.0000   1.0000   1.0000
     1.0000   1.0000   1.0000   1.0000   1.0000   1.0000   1.0000   1.0000
     1.0000   1.0000   1.0000   1.0000   1.0000   1.0000   0.0000   0.0000
     0.0000   0.0000

          k = 0.0667 0.0836 0.0000 (339125 PWs)   bands (ev):

   -28.1106 -27.8448 -26.6978 -26.5786 -18.6672 -15.7960 -13.3038 -11.0358
   -10.1697 -10.0315  -8.9082  -8.3414  -7.7806  -7.5255  -7.3873  -5.6869
    -5.4615  -5.3503  -4.6866  -4.2215  -4.1374  -3.0218   1.1024   3.6907
     3.7336   4.4602

     occupation numbers 
     1.0000   1.0000   1.0000   1.0000   1.0000   1.0000   1.0000   1.0000
     1.0000   1.0000   1.0000   1.0000   1.0000   1.0000   1.0000   1.0000
     1.0000   1.0000   1.0000   1.0000   1.0000   1.0000   0.0000   0.0000
     0.0000   0.0000

          k = 0.0667 0.1255 0.0000 (339055 PWs)   bands (ev):

   -28.0601 -27.8106 -26.7537 -26.6335 -18.5591 -16.0982 -13.0572 -11.0200
   -10.0488 -10.0015  -8.8246  -8.3800  -7.9261  -7.5621  -7.2369  -5.7749
    -5.5113  -5.4530  -4.7510  -4.2376  -4.0744  -3.1064   1.3261   3.6684
     3.7737   4.6513

     occupation numbers 
     1.0000   1.0000   1.0000   1.0000   1.0000   1.0000   1.0000   1.0000
     1.0000   1.0000   1.0000   1.0000   1.0000   1.0000   1.0000   1.0000
     1.0000   1.0000   1.0000   1.0000   1.0000   1.0000   0.0000   0.0000
     0.0000   0.0000

          k = 0.0667 0.1673 0.0000 (339027 PWs)   bands (ev):

   -27.9940 -27.7702 -26.8202 -26.7031 -18.4094 -16.4350 -12.7817 -11.0637
   -10.0065  -9.8009  -8.7216  -8.4431  -8.1028  -7.6197  -7.0460  -5.8593
    -5.5815  -5.5671  -4.8159  -4.2917  -3.9906  -3.2066   1.6128   3.6137
     3.8276   4.6492

     occupation numbers 
     1.0000   1.0000   1.0000   1.0000   1.0000   1.0000   1.0000   1.0000
     1.0000   1.0000   1.0000   1.0000   1.0000   1.0000   1.0000   1.0000
     1.0000   1.0000   1.0000   1.0000   1.0000   1.0000   0.0000   0.0000
     0.0000   0.0000

          k = 0.0667 0.2091 0.0000 (339011 PWs)   bands (ev):

   -27.9176 -27.7333 -26.8848 -26.7801 -18.2196 -16.7801 -12.4934 -11.1924
    -9.8807  -9.5944  -8.6512  -8.5346  -8.2489  -7.7014  -6.8325  -5.9488
    -5.6976  -5.6220  -4.8580  -4.3906  -3.8909  -3.3150   1.9434   3.4975
     3.8936   4.4772

     occupation numbers 
     1.0000   1.0000   1.0000   1.0000   1.0000   1.0000   1.0000   1.0000
     1.0000   1.0000   1.0000   1.0000   1.0000   1.0000   1.0000   1.0000
     1.0000   1.0000   1.0000   1.0000   1.0000   1.0000   0.0000   0.0000
     0.0000   0.0000

          k = 0.0667 0.2509 0.0000 (338954 PWs)   bands (ev):

   -27.8390 -27.7136 -26.9308 -26.8545 -17.9921 -17.1174 -12.2014 -11.3927
    -9.6909  -9.4178  -8.7280  -8.6512  -8.2276  -7.8094  -6.6175  -6.0754
    -5.7533  -5.6729  -4.8533  -4.5245  -3.7805  -3.4283   2.2992   3.2922
     3.9701   4.2984

     occupation numbers 
     1.0000   1.0000   1.0000   1.0000   1.0000   1.0000   1.0000   1.0000
     1.0000   1.0000   1.0000   1.0000   1.0000   1.0000   1.0000   1.0000
     1.0000   1.0000   1.0000   1.0000   1.0000   1.0000   0.0000   0.0000
     0.0000   0.0000

          k = 0.0667 0.2927 0.0000 (338890 PWs)   bands (ev):

   -27.7699 -27.7248 -26.9419 -26.9133 -17.7297 -17.4364 -11.9137 -11.6397
    -9.4835  -9.3541  -8.8261  -8.7729  -8.0926  -7.9429  -6.4173  -6.2363
    -5.7506  -5.7180  -4.7874  -4.6681  -3.6638  -3.5452   2.6601   3.0020
     4.0575   4.1619

     occupation numbers 
     1.0000   1.0000   1.0000   1.0000   1.0000   1.0000   1.0000   1.0000
     1.0000   1.0000   1.0000   1.0000   1.0000   1.0000   1.0000   1.0000
     1.0000   1.0000   1.0000   1.0000   1.0000   1.0000   0.0000   0.0000
     0.0000   0.0000

          k = 0.1333 0.0000 0.0000 (339148 PWs)   bands (ev):

   -28.0633 -27.7964 -26.6476 -26.5329 -18.5886 -15.3254 -13.5001 -10.9469
   -10.2421 -10.0173  -9.6501  -8.4347  -7.9669  -7.6360  -7.4201  -5.8764
    -5.7046  -5.3575  -4.7611  -4.4744  -4.1834  -3.4643   1.1567   3.9857
     4.4586   4.8245

     occupation numbers 
     1.0000   1.0000   1.0000   1.0000   1.0000   1.0000   1.0000   1.0000
     1.0000   1.0000   1.0000   1.0000   1.0000   1.0000   1.0000   1.0000
     1.0000   1.0000   1.0000   1.0000   1.0000   1.0000   0.0000   0.0000
     0.0000   0.0000

          k = 0.1333 0.0418 0.0000 (339139 PWs)   bands (ev):

   -28.0531 -27.7890 -26.6593 -26.5440 -18.5670 -15.4137 -13.4271 -10.9388
   -10.2143 -10.0317  -9.6226  -8.4491  -7.9691  -7.6724  -7.3876  -5.8988
    -5.7133  -5.3491  -4.7583  -4.4712  -4.1930  -3.4895   1.1994   4.0483
     4.4560   4.8287

     occupation numbers 
     1.0000   1.0000   1.0000   1.0000   1.0000   1.0000   1.0000   1.0000
     1.0000   1.0000   1.0000   1.0000   1.0000   1.0000   1.0000   1.0000
     1.0000   1.0000   1.0000   1.0000   1.0000   1.0000   0.0000   0.0000
     0.0000   0.0000

          k = 0.1333 0.0836 0.0000 (339208 PWs)   bands (ev):

   -28.0230 -27.7676 -26.6933 -26.5766 -18.5024 -15.6419 -13.2416 -10.9239
   -10.1390 -10.0653  -9.5388  -8.4926  -7.9757  -7.7724  -7.2979  -5.9462
    -5.7356  -5.3473  -4.7589  -4.4538  -4.2223  -3.5567   1.3248   4.2241
     4.4460   4.8413

     occupation numbers 
     1.0000   1.0000   1.0000   1.0000   1.0000   1.0000   1.0000   1.0000
     1.0000   1.0000   1.0000   1.0000   1.0000   1.0000   1.0000   1.0000
     1.0000   1.0000   1.0000   1.0000   1.0000   1.0000   0.0000   0.0000
     0.0000   0.0000

          k = 0.1333 0.1255 0.0000 (339136 PWs)   bands (ev):

   -27.9748 -27.7350 -26.7449 -26.6278 -18.3954 -15.9470 -12.9981 -10.9316
   -10.0877 -10.0355  -9.3990  -8.5646  -7.9877  -7.9214  -7.1603  -5.9868
    -5.7633  -5.3905  -4.7782  -4.4084  -4.2756  -3.6435   1.5248   4.3643
     4.5249   4.8604

     occupation numbers 
     1.0000   1.0000   1.0000   1.0000   1.0000   1.0000   1.0000   1.0000
     1.0000   1.0000   1.0000   1.0000   1.0000   1.0000   1.0000   1.0000
     1.0000   1.0000   1.0000   1.0000   1.0000   1.0000   0.0000   0.0000
     0.0000   0.0000

          k = 0.1333 0.1673 0.0000 (339084 PWs)   bands (ev):

   -27.9118 -27.6968 -26.8065 -26.6927 -18.2471 -16.2847 -12.7295 -11.0025
   -10.0581  -9.9224  -9.2174  -8.6605  -8.0996  -8.0088  -6.9845  -6.0039
    -5.7876  -5.4957  -4.8159  -4.3614  -4.3336  -3.7264   1.7883   4.2438
     4.7864   4.8828

     occupation numbers 
     1.0000   1.0000   1.0000   1.0000   1.0000   1.0000   1.0000   1.0000
     1.0000   1.0000   1.0000   1.0000   1.0000   1.0000   1.0000   1.0000
     1.0000   1.0000   1.0000   1.0000   1.0000   1.0000   0.0000   0.0000
     0.0000   0.0000

          k = 0.1333 0.2091 0.0000 (339027 PWs)   bands (ev):

   -27.8390 -27.6620 -26.8662 -26.7647 -18.0591 -16.6293 -12.4503 -11.1527
    -9.9631  -9.8122  -9.0333  -8.7693  -8.2709  -8.0461  -6.7836  -6.0002
    -5.8039  -5.6507  -4.8541  -4.4809  -4.2394  -3.7975   2.1031   3.9863
     4.9012   4.9045

     occupation numbers 
     1.0000   1.0000   1.0000   1.0000   1.0000   1.0000   1.0000   1.0000
     1.0000   1.0000   1.0000   1.0000   1.0000   1.0000   1.0000   1.0000
     1.0000   1.0000   1.0000   1.0000   1.0000   1.0000   0.0000   0.0000
     0.0000   0.0000

          k = 0.1333 0.2509 0.0000 (338976 PWs)   bands (ev):

   -27.7640 -27.6437 -26.9083 -26.8346 -17.8336 -16.9652 -12.1675 -11.3649
    -9.8311  -9.7193  -8.9233  -8.8713  -8.3601  -8.1084  -6.5707  -6.0157
    -5.8146  -5.8031  -4.8676  -4.6178  -4.1371  -3.8665   2.4574   3.6316
     4.9186   4.9208

     occupation numbers 
     1.0000   1.0000   1.0000   1.0000   1.0000   1.0000   1.0000   1.0000
     1.0000   1.0000   1.0000   1.0000   1.0000   1.0000   1.0000   1.0000
     1.0000   1.0000   1.0000   1.0000   1.0000   1.0000   0.0000   0.0000
     0.0000   0.0000

          k = 0.1333 0.2927 0.0000 (339014 PWs)   bands (ev):

   -27.6981 -27.6548 -26.9178 -26.8902 -17.5734 -17.2822 -11.8866 -11.6153
    -9.7147  -9.6737  -8.9341  -8.9297  -8.3083  -8.2007  -6.3561  -6.1520
    -5.8442  -5.8286  -4.8334  -4.7448  -4.0364  -3.9450   2.8397   3.2375
     4.9261   4.9280

     occupation numbers 
     1.0000   1.0000   1.0000   1.0000   1.0000   1.0000   1.0000   1.0000
     1.0000   1.0000   1.0000   1.0000   1.0000   1.0000   1.0000   1.0000
     1.0000   1.0000   1.0000   1.0000   1.0000   1.0000   0.0000   0.0000
     0.0000   0.0000

          k = 0.2000 0.0000 0.0000 (339178 PWs)   bands (ev):

   -27.9220 -27.6722 -26.6539 -26.5416 -18.3139 -15.0606 -13.4498 -10.7400
   -10.4710 -10.1215 -10.1192  -8.6719  -8.5686  -7.7054  -7.2620  -6.1519
    -6.0874  -5.5516  -5.1153  -4.6358  -4.2295  -4.0565   1.5100   3.8351
     5.3000   5.8092

     occupation numbers 
     1.0000   1.0000   1.0000   1.0000   1.0000   1.0000   1.0000   1.0000
     1.0000   1.0000   1.0000   1.0000   1.0000   1.0000   1.0000   1.0000
     1.0000   1.0000   1.0000   1.0000   1.0000   1.0000   0.0000   0.0000
     0.0000   0.0000

          k = 0.2000 0.0418 0.0000 (339163 PWs)   bands (ev):

   -27.9126 -27.6655 -26.6642 -26.5514 -18.2926 -15.1534 -13.3758 -10.7418
   -10.4787 -10.1382 -10.0587  -8.7366  -8.5154  -7.7437  -7.2393  -6.1615
    -6.0862  -5.5229  -5.0972  -4.6363  -4.2529  -4.0810   1.5449   3.8959
     5.2942   5.8262

     occupation numbers 
     1.0000   1.0000   1.0000   1.0000   1.0000   1.0000   1.0000   1.0000
     1.0000   1.0000   1.0000   1.0000   1.0000   1.0000   1.0000   1.0000
     1.0000   1.0000   1.0000   1.0000   1.0000   1.0000   0.0000   0.0000
     0.0000   0.0000

          k = 0.2000 0.0836 0.0000 (339158 PWs)   bands (ev):

   -27.8850 -27.6460 -26.6936 -26.5800 -18.2291 -15.3890 -13.1930 -10.7571
   -10.4813 -10.1843  -9.8984  -8.8412  -8.4428  -7.8502  -7.1727  -6.1759
    -6.0821  -5.4632  -5.0491  -4.6363  -4.3269  -4.1387   1.6487   4.0688
     5.2693   5.8487

     occupation numbers 
     1.0000   1.0000   1.0000   1.0000   1.0000   1.0000   1.0000   1.0000
     1.0000   1.0000   1.0000   1.0000   1.0000   1.0000   1.0000   1.0000
     1.0000   1.0000   1.0000   1.0000   1.0000   1.0000   0.0000   0.0000
     0.0000   0.0000

          k = 0.2000 0.1255 0.0000 (339149 PWs)   bands (ev):

   -27.8408 -27.6165 -26.7384 -26.6251 -18.1240 -15.6986 -12.9608 -10.8162
   -10.4593 -10.2252  -9.6815  -8.9493  -8.3809  -8.0042  -7.0662  -6.1736
    -6.0740  -5.4274  -4.9899  -4.6286  -4.4485  -4.1979   1.8186   4.3182
     5.1974   5.7901

     occupation numbers 
     1.0000   1.0000   1.0000   1.0000   1.0000   1.0000   1.0000   1.0000
     1.0000   1.0000   1.0000   1.0000   1.0000   1.0000   1.0000   1.0000
     1.0000   1.0000   1.0000   1.0000   1.0000   1.0000   0.0000   0.0000
     0.0000   0.0000

          k = 0.2000 0.1673 0.0000 (339148 PWs)   bands (ev):

   -27.7830 -27.5819 -26.7918 -26.6824 -17.9782 -16.0374 -12.7101 -10.9482
   -10.4121 -10.2285  -9.4451  -9.0483  -8.3352  -8.1776  -6.9242  -6.1478
    -6.0589  -5.4667  -4.9480  -4.5973  -4.5909  -4.2398   2.0506   4.5013
     5.1207   5.7042

     occupation numbers 
     1.0000   1.0000   1.0000   1.0000   1.0000   1.0000   1.0000   1.0000
     1.0000   1.0000   1.0000   1.0000   1.0000   1.0000   1.0000   1.0000
     1.0000   1.0000   1.0000   1.0000   1.0000   1.0000   0.0000   0.0000
     0.0000   0.0000

          k = 0.2000 0.2091 0.0000 (339127 PWs)   bands (ev):

   -27.7162 -27.5508 -26.8433 -26.7464 -17.7933 -16.3808 -12.4515 -11.1476
   -10.3469 -10.2002  -9.2350  -9.1245  -8.3331  -8.3110  -6.7517  -6.1065
    -6.0347  -5.5993  -4.9410  -4.7257  -4.5325  -4.2630   2.3391   4.3043
     5.3433   5.6978

     occupation numbers 
     1.0000   1.0000   1.0000   1.0000   1.0000   1.0000   1.0000   1.0000
     1.0000   1.0000   1.0000   1.0000   1.0000   1.0000   1.0000   1.0000
     1.0000   1.0000   1.0000   1.0000   1.0000   1.0000   0.0000   0.0000
     0.0000   0.0000

          k = 0.2000 0.2509 0.0000 (339119 PWs)   bands (ev):

   -27.6475 -27.5351 -26.8790 -26.8089 -17.5713 -16.7139 -12.1874 -11.3888
   -10.2749 -10.1721  -9.1609  -9.1127  -8.4176  -8.3151  -6.5533  -6.0741
    -6.0044  -5.7921  -4.9532  -4.8388  -4.4500  -4.2820   2.6779   3.9050
     5.6754   5.9577

     occupation numbers 
     1.0000   1.0000   1.0000   1.0000   1.0000   1.0000   1.0000   1.0000
     1.0000   1.0000   1.0000   1.0000   1.0000   1.0000   1.0000   1.0000
     1.0000   1.0000   1.0000   1.0000   1.0000   1.0000   0.0000   0.0000
     0.0000   0.0000

          k = 0.2000 0.2927 0.0000 (339096 PWs)   bands (ev):

   -27.5867 -27.5463 -26.8855 -26.8594 -17.3149 -17.0275 -11.9192 -11.6505
   -10.2110 -10.1729  -9.1477  -9.1070  -8.4037  -8.3508  -6.3362  -6.1341
    -5.9764  -5.9407  -4.9539  -4.9180  -4.3728  -4.3156   3.0598   3.4749
     5.7833   5.8710

     occupation numbers 
     1.0000   1.0000   1.0000   1.0000   1.0000   1.0000   1.0000   1.0000
     1.0000   1.0000   1.0000   1.0000   1.0000   1.0000   1.0000   1.0000
     1.0000   1.0000   1.0000   1.0000   1.0000   1.0000   0.0000   0.0000
     0.0000   0.0000

          k = 0.2667 0.0000 0.0000 (339188 PWs)   bands (ev):

   -27.7407 -27.5130 -26.6777 -26.5664 -17.9323 -14.6964 -13.5350 -11.1799
   -10.4841 -10.4128  -9.9767  -9.0813  -9.0226  -7.8601  -7.0828  -6.4418
    -6.3203  -5.8757  -5.5178  -4.7417  -4.5753  -4.3780   1.9275   3.8451
     5.8427   6.9173

     occupation numbers 
     1.0000   1.0000   1.0000   1.0000   1.0000   1.0000   1.0000   1.0000
     1.0000   1.0000   1.0000   1.0000   1.0000   1.0000   1.0000   1.0000
     1.0000   1.0000   1.0000   1.0000   1.0000   1.0000   0.0000   0.0000
     0.0000   0.0000

          k = 0.2667 0.0418 0.0000 (339211 PWs)   bands (ev):

   -27.7325 -27.5072 -26.6858 -26.5744 -17.9116 -14.7982 -13.4622 -11.1607
   -10.5370 -10.4109  -9.9374  -9.1725  -8.9171  -7.9021  -7.0688  -6.4326
    -6.3231  -5.8314  -5.4897  -4.7365  -4.6389  -4.3654   1.9552   3.8970
     5.8212   6.4765

     occupation numbers 
     1.0000   1.0000   1.0000   1.0000   1.0000   1.0000   1.0000   1.0000
     1.0000   1.0000   1.0000   1.0000   1.0000   1.0000   1.0000   1.0000
     1.0000   1.0000   1.0000   1.0000   1.0000   1.0000   0.0000   0.0000
     0.0000   0.0000

          k = 0.2667 0.0836 0.0000 (339132 PWs)   bands (ev):

   -27.7084 -27.4905 -26.7092 -26.5977 -17.8498 -15.0459 -13.2954 -11.1067
   -10.6757 -10.4176  -9.8267  -9.2647  -8.7848  -8.0129  -7.0280  -6.4081
    -6.3193  -5.7219  -5.4139  -4.7841  -4.7221  -4.3649   2.0389   4.0453
     5.7409   6.4199

     occupation numbers 
     1.0000   1.0000   1.0000   1.0000   1.0000   1.0000   1.0000   1.0000
     1.0000   1.0000   1.0000   1.0000   1.0000   1.0000   1.0000   1.0000
     1.0000   1.0000   1.0000   1.0000   1.0000   1.0000   0.0000   0.0000
     0.0000   0.0000

          k = 0.2667 0.1255 0.0000 (339177 PWs)   bands (ev):

   -27.6699 -27.4655 -26.7448 -26.6346 -17.7474 -15.3607 -13.0974 -11.0273
   -10.8801 -10.4323  -9.6668  -9.3337  -8.6591  -8.1580  -6.9607  -6.3732
    -6.2961  -5.5955  -5.3135  -4.9637  -4.7002  -4.3957   2.1798   4.2648
     5.5614   6.3290

     occupation numbers 
     1.0000   1.0000   1.0000   1.0000   1.0000   1.0000   1.0000   1.0000
     1.0000   1.0000   1.0000   1.0000   1.0000   1.0000   1.0000   1.0000
     1.0000   1.0000   1.0000   1.0000   1.0000   1.0000   0.0000   0.0000
     0.0000   0.0000

          k = 0.2667 0.1673 0.0000 (339154 PWs)   bands (ev):

   -27.6196 -27.4364 -26.7870 -26.6819 -17.6054 -15.6993 -12.8903 -11.1287
   -10.9326 -10.4513  -9.4971  -9.3815  -8.5489  -8.2976  -6.8647  -6.3280
    -6.2574  -5.5210  -5.2182  -5.1272  -4.6704  -4.4447   2.3791   4.4857
     5.3073   6.3051

     occupation numbers 
     1.0000   1.0000   1.0000   1.0000   1.0000   1.0000   1.0000   1.0000
     1.0000   1.0000   1.0000   1.0000   1.0000   1.0000   1.0000   1.0000
     1.0000   1.0000   1.0000   1.0000   1.0000   1.0000   0.0000   0.0000
     0.0000   0.0000

          k = 0.2667 0.2091 0.0000 (339140 PWs)   bands (ev):

   -27.5615 -27.4109 -26.8272 -26.7350 -17.4250 -16.0394 -12.6752 -11.4000
   -10.8316 -10.4764  -9.4078  -9.3699  -8.4623  -8.3912  -6.7379  -6.2692
    -6.2216  -5.5966  -5.1895  -5.1559  -4.6302  -4.4879   2.6372   4.4737
     5.2248   6.2393

     occupation numbers 
     1.0000   1.0000   1.0000   1.0000   1.0000   1.0000   1.0000   1.0000
     1.0000   1.0000   1.0000   1.0000   1.0000   1.0000   1.0000   1.0000
     1.0000   1.0000   1.0000   1.0000   1.0000   1.0000   0.0000   0.0000
     0.0000   0.0000

          k = 0.2667 0.2509 0.0000 (339180 PWs)   bands (ev):

   -27.5015 -27.3994 -26.8537 -26.7877 -17.2082 -16.3678 -12.4483 -11.6770
   -10.7322 -10.5134  -9.4090  -9.3244  -8.4163  -8.4068  -6.5832  -6.2183
    -6.1923  -5.7770  -5.1842  -5.1372  -4.5837  -4.5103   2.9520   4.1380
     5.4153   6.0404

     occupation numbers 
     1.0000   1.0000   1.0000   1.0000   1.0000   1.0000   1.0000   1.0000
     1.0000   1.0000   1.0000   1.0000   1.0000   1.0000   1.0000   1.0000
     1.0000   1.0000   1.0000   1.0000   1.0000   1.0000   0.0000   0.0000
     0.0000   0.0000

          k = 0.2667 0.2927 0.0000 (339216 PWs)   bands (ev):

   -27.4480 -27.4113 -26.8558 -26.8313 -16.9573 -16.6757 -12.2061 -11.9480
   -10.6421 -10.5680  -9.3842  -9.3450  -8.3990  -8.3872  -6.4170  -6.2810
    -6.0925  -5.9565  -5.1697  -5.1495  -4.5446  -4.5224   3.3181   3.7229
     5.6412   5.8451

     occupation numbers 
     1.0000   1.0000   1.0000   1.0000   1.0000   1.0000   1.0000   1.0000
     1.0000   1.0000   1.0000   1.0000   1.0000   1.0000   1.0000   1.0000
     1.0000   1.0000   1.0000   1.0000   1.0000   1.0000   0.0000   0.0000
     0.0000   0.0000

          k = 0.3333 0.0000 0.0000 (339220 PWs)   bands (ev):

   -27.5349 -27.3323 -26.7299 -26.6165 -17.4470 -14.2395 -13.9475 -11.4991
   -10.9806 -10.2688  -9.8298  -9.3684  -9.3493  -8.0925  -7.0380  -6.5413
    -6.3830  -6.2864  -5.8601  -4.9902  -4.8382  -4.5842   2.3900   4.0392
     5.5442   6.9371

     occupation numbers 
     1.0000   1.0000   1.0000   1.0000   1.0000   1.0000   1.0000   1.0000
     1.0000   1.0000   1.0000   1.0000   1.0000   1.0000   1.0000   1.0000
     1.0000   1.0000   1.0000   1.0000   1.0000   1.0000   0.0000   0.0000
     0.0000   0.0000

          k = 0.3333 0.0418 0.0000 (339185 PWs)   bands (ev):

   -27.5283 -27.3278 -26.7356 -26.6223 -17.4271 -14.3805 -13.8531 -11.4601
   -11.0493 -10.2788  -9.8043  -9.4852  -9.1908  -8.1332  -7.0076  -6.5632
    -6.3913  -6.2303  -5.8118  -5.0522  -4.8270  -4.5616   2.4120   4.0756
     5.5276   6.9321

     occupation numbers 
     1.0000   1.0000   1.0000   1.0000   1.0000   1.0000   1.0000   1.0000
     1.0000   1.0000   1.0000   1.0000   1.0000   1.0000   1.0000   1.0000
     1.0000   1.0000   1.0000   1.0000   1.0000   1.0000   0.0000   0.0000
     0.0000   0.0000

          k = 0.3333 0.0836 0.0000 (339200 PWs)   bands (ev):

   -27.5089 -27.3150 -26.7517 -26.6394 -17.3676 -14.6475 -13.7112 -11.3576
   -11.2314 -10.3141  -9.7349  -9.5628  -9.0023  -8.2311  -6.9350  -6.6027
    -6.3864  -6.1029  -5.6948  -5.1947  -4.7958  -4.5312   2.4796   4.1802
     5.4736   6.9129

     occupation numbers 
     1.0000   1.0000   1.0000   1.0000   1.0000   1.0000   1.0000   1.0000
     1.0000   1.0000   1.0000   1.0000   1.0000   1.0000   1.0000   1.0000
     1.0000   1.0000   1.0000   1.0000   1.0000   1.0000   0.0000   0.0000
     0.0000   0.0000

          k = 0.3333 0.1255 0.0000 (339209 PWs)   bands (ev):

   -27.4779 -27.2960 -26.7761 -26.6666 -17.2689 -14.9586 -13.5701 -11.4822
   -11.2229 -10.3728  -9.6446  -9.6057  -8.8153  -8.3367  -6.8577  -6.6120
    -6.3663  -5.9382  -5.5562  -5.3622  -4.7506  -4.5298   2.5960   4.3363
     5.3728   6.3857

     occupation numbers 
     1.0000   1.0000   1.0000   1.0000   1.0000   1.0000   1.0000   1.0000
     1.0000   1.0000   1.0000   1.0000   1.0000   1.0000   1.0000   1.0000
     1.0000   1.0000   1.0000   1.0000   1.0000   1.0000   0.0000   0.0000
     0.0000   0.0000

          k = 0.3333 0.1673 0.0000 (339170 PWs)   bands (ev):

   -27.4374 -27.2746 -26.8046 -26.7017 -17.1320 -15.2874 -13.4213 -11.7654
   -11.0831 -10.4420  -9.6310  -9.5716  -8.6476  -8.4041  -6.8056  -6.5523
    -6.3540  -5.7638  -5.5196  -5.4326  -4.7006  -4.5592   2.7658   4.4983
     5.2310   6.1142

     occupation numbers 
     1.0000   1.0000   1.0000   1.0000   1.0000   1.0000   1.0000   1.0000
     1.0000   1.0000   1.0000   1.0000   1.0000   1.0000   1.0000   1.0000
     1.0000   1.0000   1.0000   1.0000   1.0000   1.0000   0.0000   0.0000
     0.0000   0.0000

          k = 0.3333 0.2091 0.0000 (339238 PWs)   bands (ev):

   -27.3907 -27.2571 -26.8306 -26.7418 -16.9579 -15.6169 -13.2551 -12.0568
   -10.9529 -10.5121  -9.6464  -9.5478  -8.5115  -8.4124  -6.7655  -6.4288
    -6.3773  -5.6600  -5.5963  -5.3482  -4.6559  -4.5998   2.9924   4.5318
     5.1442   5.8793

     occupation numbers 
     1.0000   1.0000   1.0000   1.0000   1.0000   1.0000   1.0000   1.0000
     1.0000   1.0000   1.0000   1.0000   1.0000   1.0000   1.0000   1.0000
     1.0000   1.0000   1.0000   1.0000   1.0000   1.0000   0.0000   0.0000
     0.0000   0.0000

          k = 0.3333 0.2509 0.0000 (339214 PWs)   bands (ev):

   -27.3420 -27.2517 -26.8451 -26.7826 -16.7485 -15.9350 -13.0654 -12.3406
   -10.8381 -10.5818  -9.6502  -9.5693  -8.4154  -8.3827  -6.7106  -6.4458
    -6.2667  -5.7736  -5.4770  -5.3145  -4.6266  -4.6243   3.2753   4.3099
     5.2267   5.6831

     occupation numbers 
     1.0000   1.0000   1.0000   1.0000   1.0000   1.0000   1.0000   1.0000
     1.0000   1.0000   1.0000   1.0000   1.0000   1.0000   1.0000   1.0000
     1.0000   1.0000   1.0000   1.0000   1.0000   1.0000   0.0000   0.0000
     0.0000   0.0000

          k = 0.3333 0.2927 0.0000 (339279 PWs)   bands (ev):

   -27.2977 -27.2654 -26.8410 -26.8181 -16.5059 -16.2334 -12.8493 -12.6067
   -10.7395 -10.6556  -9.6376  -9.6073  -8.3640  -8.3568  -6.6337  -6.5400
    -6.0867  -5.9149  -5.3872  -5.3305  -4.6243  -4.6183   3.6068   3.9663
     5.3692   5.5181

     occupation numbers 
     1.0000   1.0000   1.0000   1.0000   1.0000   1.0000   1.0000   1.0000
     1.0000   1.0000   1.0000   1.0000   1.0000   1.0000   1.0000   1.0000
     1.0000   1.0000   1.0000   1.0000   1.0000   1.0000   0.0000   0.0000
     0.0000   0.0000

          k = 0.4000 0.0000 0.0000 (339234 PWs)   bands (ev):

   -27.3228 -27.1460 -26.8200 -26.6993 -16.8622 -14.6496 -13.6983 -11.6872
   -11.4194 -10.3706  -9.7030  -9.4653  -9.3863  -8.3901  -7.1434  -6.6842
    -6.3815  -6.3211  -6.1092  -5.3468  -4.9152  -4.7805   2.8997   4.4129
     4.8317   6.4270

     occupation numbers 
     1.0000   1.0000   1.0000   1.0000   1.0000   1.0000   1.0000   1.0000
     1.0000   1.0000   1.0000   1.0000   1.0000   1.0000   1.0000   1.0000
     1.0000   1.0000   1.0000   1.0000   1.0000   1.0000   0.0000   0.0000
     0.0000   0.0000

          k = 0.4000 0.0418 0.0000 (339245 PWs)   bands (ev):

   -27.3182 -27.1432 -26.8228 -26.7028 -16.8433 -14.6498 -13.7572 -11.7645
   -11.3694 -10.3549  -9.6945  -9.5970  -9.2289  -8.4154  -7.0983  -6.6425
    -6.4222  -6.3824  -6.0025  -5.3935  -4.8978  -4.7492   2.9176   4.4282
     4.8337   6.3281

     occupation numbers 
     1.0000   1.0000   1.0000   1.0000   1.0000   1.0000   1.0000   1.0000
     1.0000   1.0000   1.0000   1.0000   1.0000   1.0000   1.0000   1.0000
     1.0000   1.0000   1.0000   1.0000   1.0000   1.0000   0.0000   0.0000
     0.0000   0.0000

          k = 0.4000 0.0836 0.0000 (339231 PWs)   bands (ev):

   -27.3047 -27.1355 -26.8308 -26.7130 -16.7869 -14.6636 -13.8962 -11.9661
   -11.2450 -10.3346  -9.7235  -9.6772  -9.0254  -8.4659  -6.9799  -6.5699
    -6.5250  -6.3910  -5.8384  -5.4919  -4.8502  -4.6905   2.9730   4.4743
     4.8373   6.1100

     occupation numbers 
     1.0000   1.0000   1.0000   1.0000   1.0000   1.0000   1.0000   1.0000
     1.0000   1.0000   1.0000   1.0000   1.0000   1.0000   1.0000   1.0000
     1.0000   1.0000   1.0000   1.0000   1.0000   1.0000   0.0000   0.0000
     0.0000   0.0000

          k = 0.4000 0.1255 0.0000 (339310 PWs)   bands (ev):

   -27.2832 -27.1246 -26.8425 -26.7295 -16.6935 -14.7363 -14.0199 -12.2369
   -11.0943 -10.3485  -9.8036  -9.6724  -8.8230  -8.4933  -6.8182  -6.6988
    -6.4322  -6.3418  -5.6854  -5.5801  -4.7847  -4.6492   3.0697   4.5410
     4.8451   5.8697

     occupation numbers 
     1.0000   1.0000   1.0000   1.0000   1.0000   1.0000   1.0000   1.0000
     1.0000   1.0000   1.0000   1.0000   1.0000   1.0000   1.0000   1.0000
     1.0000   1.0000   1.0000   1.0000   1.0000   1.0000   0.0000   0.0000
     0.0000   0.0000

          k = 0.4000 0.1673 0.0000 (339237 PWs)   bands (ev):

   -27.2551 -27.1135 -26.8549 -26.7512 -16.5637 -14.9139 -14.0405 -12.5357
   -10.9523 -10.3998  -9.8443  -9.6978  -8.6394  -8.4699  -6.7966  -6.6297
    -6.5016  -6.1362  -5.6287  -5.5615  -4.7191  -4.6412   3.2126   4.5755
     4.8915   5.6523

     occupation numbers 
     1.0000   1.0000   1.0000   1.0000   1.0000   1.0000   1.0000   1.0000
     1.0000   1.0000   1.0000   1.0000   1.0000   1.0000   1.0000   1.0000
     1.0000   1.0000   1.0000   1.0000   1.0000   1.0000   0.0000   0.0000
     0.0000   0.0000

          k = 0.4000 0.2091 0.0000 (339219 PWs)   bands (ev):

   -27.2224 -27.1073 -26.8634 -26.7767 -16.3989 -15.1672 -13.9599 -12.8366
   -10.8334 -10.4672  -9.8639  -9.7484  -8.4893  -8.4092  -6.8555  -6.6014
    -6.4247  -5.9282  -5.6512  -5.4795  -4.6708  -4.6578   3.4035   4.5158
     5.0025   5.4772

     occupation numbers 
     1.0000   1.0000   1.0000   1.0000   1.0000   1.0000   1.0000   1.0000
     1.0000   1.0000   1.0000   1.0000   1.0000   1.0000   1.0000   1.0000
     1.0000   1.0000   1.0000   1.0000   1.0000   1.0000   0.0000   0.0000
     0.0000   0.0000

          k = 0.4000 0.2509 0.0000 (339261 PWs)   bands (ev):

   -27.1879 -27.1113 -26.8629 -26.8039 -16.2008 -15.4447 -13.8130 -13.1239
   -10.7387 -10.5343  -9.8722  -9.8035  -8.3822  -8.3469  -6.8740  -6.7058
    -6.2105  -5.7796  -5.6597  -5.4494  -4.6747  -4.6507   3.6376   4.3688
     5.1207   5.3509

     occupation numbers 
     1.0000   1.0000   1.0000   1.0000   1.0000   1.0000   1.0000   1.0000
     1.0000   1.0000   1.0000   1.0000   1.0000   1.0000   1.0000   1.0000
     1.0000   1.0000   1.0000   1.0000   1.0000   1.0000   0.0000   0.0000
     0.0000   0.0000

          k = 0.4000 0.2927 0.0000 (339253 PWs)   bands (ev):

   -27.1550 -27.1279 -26.8511 -26.8300 -15.9723 -15.7177 -13.6190 -13.3871
   -10.6629 -10.5977  -9.8678  -9.8456  -8.3231  -8.3130  -6.8524  -6.7938
    -6.0056  -5.8409  -5.5616  -5.4771  -4.6723  -4.6568   3.8977   4.1536
     5.2034   5.2674

     occupation numbers 
     1.0000   1.0000   1.0000   1.0000   1.0000   1.0000   1.0000   1.0000
     1.0000   1.0000   1.0000   1.0000   1.0000   1.0000   1.0000   1.0000
     1.0000   1.0000   1.0000   1.0000   1.0000   1.0000   0.0000   0.0000
     0.0000   0.0000

          k = 0.4667 0.0000 0.0000 (339220 PWs)   bands (ev):

   -27.1232 -26.9700 -26.9521 -26.8182 -16.1854 -15.4336 -13.0825 -12.4049
   -11.1286 -10.7447  -9.6075  -9.5361  -9.0918  -8.7337  -7.1446  -6.9862
    -6.3439  -6.2630  -6.0140  -5.6847  -4.9484  -4.9089   3.4711   4.1173
     4.9491   5.6282

     occupation numbers 
     1.0000   1.0000   1.0000   1.0000   1.0000   1.0000   1.0000   1.0000
     1.0000   1.0000   1.0000   1.0000   1.0000   1.0000   1.0000   1.0000
     1.0000   1.0000   1.0000   1.0000   1.0000   1.0000   0.0000   0.0000
     0.0000   0.0000

          k = 0.4667 0.0418 0.0000 (339239 PWs)   bands (ev):

   -27.1210 -26.9721 -26.9493 -26.8192 -16.1681 -15.4193 -13.1608 -12.4858
   -11.0791 -10.7056  -9.6226  -9.5905  -9.0318  -8.7268  -7.0986  -6.9418
    -6.3670  -6.3452  -5.9445  -5.6945  -4.9243  -4.8783   3.4856   4.1274
     4.9386   5.5838

     occupation numbers 
     1.0000   1.0000   1.0000   1.0000   1.0000   1.0000   1.0000   1.0000
     1.0000   1.0000   1.0000   1.0000   1.0000   1.0000   1.0000   1.0000
     1.0000   1.0000   1.0000   1.0000   1.0000   1.0000   0.0000   0.0000
     0.0000   0.0000

          k = 0.4667 0.0836 0.0000 (339287 PWs)   bands (ev):

   -27.1147 -26.9770 -26.9423 -26.8222 -16.1164 -15.3774 -13.3640 -12.6955
   -10.9615 -10.6198  -9.7037  -9.6696  -8.8977  -8.6944  -6.9738  -6.8181
    -6.4897  -6.4347  -5.8303  -5.7038  -4.8619  -4.8089   3.5305   4.1585
     4.9133   5.4733

     occupation numbers 
     1.0000   1.0000   1.0000   1.0000   1.0000   1.0000   1.0000   1.0000
     1.0000   1.0000   1.0000   1.0000   1.0000   1.0000   1.0000   1.0000
     1.0000   1.0000   1.0000   1.0000   1.0000   1.0000   0.0000   0.0000
     0.0000   0.0000

          k = 0.4667 0.1255 0.0000 (339301 PWs)   bands (ev):

   -27.1047 -26.9837 -26.9327 -26.8274 -16.0309 -15.3111 -13.6313 -12.9746
   -10.8304 -10.5397  -9.8209  -9.7453  -8.7385  -8.6223  -6.8106  -6.6575
    -6.6177  -6.5148  -5.7218  -5.6894  -4.7853  -4.7393   3.6084   4.2085
     4.8906   5.3411

     occupation numbers 
     1.0000   1.0000   1.0000   1.0000   1.0000   1.0000   1.0000   1.0000
     1.0000   1.0000   1.0000   1.0000   1.0000   1.0000   1.0000   1.0000
     1.0000   1.0000   1.0000   1.0000   1.0000   1.0000   0.0000   0.0000
     0.0000   0.0000

          k = 0.4667 0.1673 0.0000 (339258 PWs)   bands (ev):

   -27.0917 -26.9921 -26.9212 -26.8345 -15.9130 -15.2290 -13.9104 -13.2787
   -10.7206 -10.4956  -9.9152  -9.8336  -8.5807  -8.5200  -6.8037  -6.6931
    -6.5366  -6.3765  -5.6563  -5.6306  -4.7197  -4.6946   3.7199   4.2623
     4.8976   5.2251

     occupation numbers 
     1.0000   1.0000   1.0000   1.0000   1.0000   1.0000   1.0000   1.0000
     1.0000   1.0000   1.0000   1.0000   1.0000   1.0000   1.0000   1.0000
     1.0000   1.0000   1.0000   1.0000   1.0000   1.0000   0.0000   0.0000
     0.0000   0.0000

          k = 0.4667 0.2091 0.0000 (339253 PWs)   bands (ev):

   -27.0767 -27.0025 -26.9082 -26.8437 -15.7652 -15.1539 -14.1518 -13.5795
   -10.6429 -10.4904  -9.9763  -9.9142  -8.4447  -8.4143  -6.8918  -6.8028
    -6.3145  -6.1452  -5.6297  -5.5696  -4.6810  -4.6801   3.8573   4.2901
     4.9600   5.1507

     occupation numbers 
     1.0000   1.0000   1.0000   1.0000   1.0000   1.0000   1.0000   1.0000
     1.0000   1.0000   1.0000   1.0000   1.0000   1.0000   1.0000   1.0000
     1.0000   1.0000   1.0000   1.0000   1.0000   1.0000   0.0000   0.0000
     0.0000   0.0000

          k = 0.4667 0.2509 0.0000 (339199 PWs)   bands (ev):

   -27.0606 -27.0148 -26.8944 -26.8546 -15.5927 -15.1393 -14.2868 -13.8575
   -10.5936 -10.5094 -10.0075  -9.9731  -8.3458  -8.3314  -6.9517  -6.8940
    -6.0868  -5.9251  -5.6406  -5.5561  -4.6836  -4.6711   4.0014   4.2740
     5.0629   5.1301

     occupation numbers 
     1.0000   1.0000   1.0000   1.0000   1.0000   1.0000   1.0000   1.0000
     1.0000   1.0000   1.0000   1.0000   1.0000   1.0000   1.0000   1.0000
     1.0000   1.0000   1.0000   1.0000   1.0000   1.0000   0.0000   0.0000
     0.0000   0.0000

          k = 0.4667 0.2927 0.0000 (339251 PWs)   bands (ev):

   -27.0444 -27.0289 -26.8804 -26.8670 -15.4070 -15.2363 -14.2562 -14.0936
   -10.5617 -10.5353 -10.0167 -10.0062  -8.2926  -8.2883  -6.9725  -6.9526
    -5.8859  -5.7741  -5.6880  -5.6050  -4.6859  -4.6785   4.1267   4.2182
     5.1388   5.1461

     occupation numbers 
     1.0000   1.0000   1.0000   1.0000   1.0000   1.0000   1.0000   1.0000
     1.0000   1.0000   1.0000   1.0000   1.0000   1.0000   1.0000   1.0000
     1.0000   1.0000   1.0000   1.0000   1.0000   1.0000   0.0000   0.0000
     0.0000   0.0000

     the Fermi energy is    -0.4824 ev

!    total energy              =    -240.24744207 Ry
     estimated scf accuracy    <          2.2E-09 Ry
     smearing contrib. (-TS)   =      -0.00000000 Ry
     internal energy E=F+TS    =    -240.24744207 Ry

     The total energy is F=E-TS. E is the sum of the following terms:
     one-electron contribution =   -1256.48204825 Ry
     hartree contribution      =     642.01119101 Ry
     xc contribution           =     -51.69325753 Ry
     ewald contribution        =     425.91667271 Ry

     convergence has been achieved in  10 iterations

     negative rho (up, down):  1.335E-06 0.000E+00

     Forces acting on atoms (cartesian axes, Ry/au):

     atom    1 type  1   force =     0.00000000   -0.00005004   -0.00000401
     atom    2 type  1   force =     0.00000000   -0.00005004    0.00000401
     atom    3 type  1   force =     0.00000000    0.00005004   -0.00000401
     atom    4 type  1   force =     0.00000000    0.00005004    0.00000401
     atom    5 type  2   force =     0.00000000   -0.00003129   -0.00002788
     atom    6 type  2   force =     0.00000000   -0.00003129    0.00002788
     atom    7 type  2   force =     0.00000000    0.00003129   -0.00002788
     atom    8 type  2   force =     0.00000000    0.00003129    0.00002788
     The non-local contrib.  to forces
     atom    1 type  1   force =     0.00000000   -0.16227285    0.36789737
     atom    2 type  1   force =    -0.00000000   -0.16227285   -0.36789737
     atom    3 type  1   force =     0.00000000    0.16227285    0.36789737
     atom    4 type  1   force =     0.00000000    0.16227285   -0.36789737
     atom    5 type  2   force =     0.00000000   -0.97074080    2.28338787
     atom    6 type  2   force =    -0.00000000   -0.97074080   -2.28338787
     atom    7 type  2   force =     0.00000000    0.97074080    2.28338787
     atom    8 type  2   force =     0.00000000    0.97074080   -2.28338787
     The ionic contribution  to forces
     atom    1 type  1   force =    -0.00000000    0.91439883    2.68704709
     atom    2 type  1   force =    -0.00000000    0.91439883   -2.68704709
     atom    3 type  1   force =     0.00000000   -0.91439883    2.68704709
     atom    4 type  1   force =     0.00000000   -0.91439883   -2.68704709
     atom    5 type  2   force =     0.00000000    4.28250416  -44.49509369
     atom    6 type  2   force =     0.00000000    4.28250416   44.49509369
     atom    7 type  2   force =    -0.00000000   -4.28250416  -44.49509369
     atom    8 type  2   force =     0.00000000   -4.28250416   44.49509369
     The local contribution  to forces
     atom    1 type  1   force =     0.00000000   -0.75314611   -3.05230118
     atom    2 type  1   force =     0.00000000   -0.75314611    3.05230118
     atom    3 type  1   force =    -0.00000000    0.75314611   -3.05230118
     atom    4 type  1   force =    -0.00000000    0.75314611    3.05230118
     atom    5 type  2   force =     0.00000000   -3.31182028   42.21178624
     atom    6 type  2   force =     0.00000000   -3.31182028  -42.21178624
     atom    7 type  2   force =    -0.00000000    3.31182028   42.21178624
     atom    8 type  2   force =    -0.00000000    3.31182028  -42.21178624
     The core correction contribution to forces
     atom    1 type  1   force =    -0.00000000    0.00097344   -0.00267343
     atom    2 type  1   force =    -0.00000000    0.00097344    0.00267343
     atom    3 type  1   force =     0.00000000   -0.00097344   -0.00267343
     atom    4 type  1   force =     0.00000000   -0.00097344    0.00267343
     atom    5 type  2   force =     0.00000000    0.00000000    0.00000000
     atom    6 type  2   force =     0.00000000    0.00000000    0.00000000
     atom    7 type  2   force =     0.00000000    0.00000000    0.00000000
     atom    8 type  2   force =     0.00000000    0.00000000    0.00000000
     The Hubbard contrib.    to forces
     atom    1 type  1   force =     0.00000000    0.00000000    0.00000000
     atom    2 type  1   force =     0.00000000    0.00000000    0.00000000
     atom    3 type  1   force =     0.00000000    0.00000000    0.00000000
     atom    4 type  1   force =     0.00000000    0.00000000    0.00000000
     atom    5 type  2   force =     0.00000000    0.00000000    0.00000000
     atom    6 type  2   force =     0.00000000    0.00000000    0.00000000
     atom    7 type  2   force =     0.00000000    0.00000000    0.00000000
     atom    8 type  2   force =     0.00000000    0.00000000    0.00000000
     The SCF correction term to forces
     atom    1 type  1   force =    -0.00000000   -0.00000335    0.00002614
     atom    2 type  1   force =    -0.00000000   -0.00000335   -0.00002614
     atom    3 type  1   force =    -0.00000000    0.00000335    0.00002614
     atom    4 type  1   force =    -0.00000000    0.00000335   -0.00002614
     atom    5 type  2   force =    -0.00000000    0.00002563   -0.00010830
     atom    6 type  2   force =    -0.00000000    0.00002563    0.00010830
     atom    7 type  2   force =     0.00000000   -0.00002563   -0.00010830
     atom    8 type  2   force =     0.00000000   -0.00002563    0.00010830

     Total force =     0.000131     Total SCF correction =     0.000229
     SCF correction compared to forces is large: reduce conv_thr to get better values


     Computing stress (Cartesian axis) and pressure


     negative rho (up, down):  1.335E-06 0.000E+00
          total   stress  (Ry/bohr**3)                   (kbar)     P=       -0.05
  -0.00000065   0.00000000   0.00000000           -0.10        0.00        0.00
   0.00000000  -0.00000030   0.00000000            0.00       -0.04        0.00
   0.00000000   0.00000000  -0.00000012            0.00        0.00       -0.02

     kinetic stress (kbar)   9135.56      0.00      0.00
                                0.00   8958.54      0.00
                                0.00      0.00   8301.44

     local   stress (kbar)-161108.15      0.00      0.00
                                0.00-162214.32     -0.00
                                0.00     -0.00 155410.91

     nonloc. stress (kbar)   1180.26      0.00      0.00
                                0.00   1137.48      0.00
                                0.00      0.00    963.81

     hartree stress (kbar)  80821.34      0.00     -0.00
                                0.00  81109.50      0.00
                               -0.00      0.00 -74841.86

     exc-cor stress (kbar)  -2141.77     -0.00     -0.00
                               -0.00  -2137.82      0.00
                               -0.00      0.00  -2131.14

     corecor stress (kbar)    -73.64      0.00     -0.00
                                0.00    -73.49      0.00
                               -0.00      0.00    -72.52

     ewald   stress (kbar)  72186.31     -0.00      0.00
                               -0.00  73220.06      0.00
                                0.00      0.00 -87630.66

     hubbard stress (kbar)      0.00      0.00      0.00
                                0.00      0.00      0.00
                                0.00      0.00      0.00

     DFT-D   stress (kbar)      0.00      0.00      0.00
                                0.00      0.00      0.00
                                0.00      0.00      0.00

     XDM     stress (kbar)      0.00      0.00      0.00
                                0.00      0.00      0.00
                                0.00      0.00      0.00

     dft-nl  stress (kbar)      0.00      0.00      0.00
                                0.00      0.00      0.00
                                0.00      0.00      0.00

     TS-vdW  stress (kbar)      0.00      0.00      0.00
                                0.00      0.00      0.00
                                0.00      0.00      0.00

     MDB     stress (kbar)      0.00      0.00      0.00
                                0.00      0.00      0.00
                                0.00      0.00      0.00

     3D-RISM stress (kbar)      0.00      0.00      0.00
                                0.00      0.00      0.00
                                0.00      0.00      0.00


     Writing all to output data dir ../tmp/fgz.save/

     init_run     :     80.51s CPU    119.48s WALL (       1 calls)
     electrons    :   3415.25s CPU   5105.79s WALL (       1 calls)
     forces       :     65.97s CPU    114.27s WALL (       1 calls)
     stress       :     51.75s CPU     89.87s WALL (       1 calls)

     Called by init_run:
     wfcinit      :     77.65s CPU    116.37s WALL (       1 calls)
     wfcinit:atom :      0.20s CPU      0.28s WALL (      64 calls)
     wfcinit:wfcr :     75.05s CPU    112.57s WALL (      64 calls)
     potinit      :      0.91s CPU      0.92s WALL (       1 calls)
     hinit0       :      0.87s CPU      0.87s WALL (       1 calls)

     Called by electrons:
     c_bands      :   3268.50s CPU   4829.39s WALL (      10 calls)
     sum_band     :    142.93s CPU    270.55s WALL (      10 calls)
     v_of_rho     :      0.82s CPU      0.80s WALL (      11 calls)
     v_h          :      0.05s CPU      0.05s WALL (      11 calls)
     v_xc         :      0.89s CPU      0.87s WALL (      13 calls)
     newd         :      2.72s CPU      4.23s WALL (      11 calls)
     mix_rho      :      0.23s CPU      0.24s WALL (      10 calls)

     Called by c_bands:
     init_us_2    :      2.42s CPU      3.76s WALL (    1472 calls)
     init_us_2:cp :      2.41s CPU      3.75s WALL (    1472 calls)
     cegterg      :   3154.33s CPU   4651.90s WALL (     640 calls)

     Called by sum_band:
     sum_band:wei :      0.02s CPU      0.01s WALL (      10 calls)
     sum_band:loo :    138.96s CPU    263.77s WALL (      10 calls)
     sum_band:buf :      0.30s CPU      0.72s WALL (     640 calls)
     sum_band:ini :      0.86s CPU      1.42s WALL (     640 calls)
     sum_band:cal :    109.86s CPU    223.31s WALL (     640 calls)
     sum_band:bec :      0.00s CPU      0.01s WALL (     640 calls)
     addusdens    :      2.19s CPU      4.57s WALL (      10 calls)
     addusd:skk   :      0.02s CPU      0.14s WALL (      20 calls)
     addusd:dgemm :      1.17s CPU      2.73s WALL (      20 calls)
     addusd:qvan2 :      0.94s CPU      1.65s WALL (      20 calls)

     Called by *egterg:
     cdiaghg      :    345.34s CPU    167.47s WALL (    2918 calls)
     cegterg:over :    856.21s CPU   1274.83s WALL (    2278 calls)
     cegterg:upda :    150.60s CPU    232.33s WALL (    2278 calls)
     cegterg:last :    153.54s CPU    244.32s WALL (    1457 calls)
     h_psi        :    989.07s CPU   1749.04s WALL (    2982 calls)
     s_psi        :     48.82s CPU     91.38s WALL (    2982 calls)
     g_psi        :      1.32s CPU      1.09s WALL (    2278 calls)

     Called by h_psi:
     h_psi:calbec :    542.57s CPU   1022.60s WALL (    2982 calls)
     vloc_psi     :    247.47s CPU    260.57s WALL (    2982 calls)
     add_vuspsi   :    197.98s CPU    464.24s WALL (    2982 calls)

     General routines
     calbec       :    741.83s CPU   1392.02s WALL (    3942 calls)
     fft          :      1.19s CPU      1.21s WALL (     146 calls)
     ffts         :      0.03s CPU      0.04s WALL (      10 calls)
     fftw         :    261.88s CPU    275.76s WALL (  110460 calls)

     Parallel routines

     PWSCF        :      1h 0m CPU      1h31m WALL


   This run was terminated on:   7: 5:51  20Jan2024            

=------------------------------------------------------------------------------=
   JOB DONE.
=------------------------------------------------------------------------------=
