
     Program PWSCF v.7.1 starts on 20Jan2024 at  3:12: 4 

     This program is part of the open-source Quantum ESPRESSO suite
     for quantum simulation of materials; please cite
         "P. Giannozzi et al., J. Phys.:Condens. Matter 21 395502 (2009);
         "P. Giannozzi et al., J. Phys.:Condens. Matter 29 465901 (2017);
         "P. Giannozzi et al., J. Chem. Phys. 152 154105 (2020);
          URL http://www.quantum-espresso.org", 
     in publications or presentations arising from this work. More details at
     http://www.quantum-espresso.org/quote

     Parallel version (MPI), running on    50 processors

     MPI processes distributed on     1 nodes
     351602 MiB available memory on the printing compute node when the environment starts

     Reading input from kpoint.3.in

     Current dimensions of program PWSCF are:
     Max number of different atomic species (ntypx) = 10
     Max number of k-points (npk) =  40000
     Max angular momentum in pseudopotentials (lmaxx) =  4
     Message from routine setup:
     using ibrav=0 with symmetry is DISCOURAGED, use correct ibrav instead

     R & G space division:  proc/nbgrp/npool/nimage =      50
     Subspace diagonalization in iterative solution of the eigenvalue problem:
     a serial algorithm will be used


     Parallelization info
     --------------------
     sticks:   dense  smooth     PW     G-vecs:    dense   smooth      PW
     Min         175     175     45                54253    54253    7165
     Max         176     176     46                54271    54271    7178
     Sum        8763    8763   2281              2713169  2713169  358581

     Using Slab Decomposition



     bravais-lattice index     =            0
     lattice parameter (alat)  =       4.9702  a.u.
     unit-cell volume          =    1084.4437 (a.u.)^3
     number of atoms/cell      =            8
     number of atomic types    =            2
     number of electrons       =        44.00
     number of Kohn-Sham states=           26
     kinetic-energy cutoff     =     700.0000  Ry
     charge density cutoff     =    2800.0000  Ry
     scf convergence threshold =      1.0E-08
     mixing beta               =       0.7000
     number of iterations used =            8  plain     mixing
     Exchange-correlation=  SLA  PW   PBX  PBC
                           (   1   4   3   4   0   0   0)

     celldm(1)=   4.970237  celldm(2)=   0.000000  celldm(3)=   0.000000
     celldm(4)=   0.000000  celldm(5)=   0.000000  celldm(6)=   0.000000

     crystal axes: (cart. coord. in units of alat)
               a(1) = (   1.000000   0.000000   0.000000 )  
               a(2) = (   0.000000   1.594189   0.000000 )  
               a(3) = (   0.000000   0.000000   5.540333 )  

     reciprocal axes: (cart. coord. in units 2 pi/alat)
               b(1) = (  1.000000  0.000000  0.000000 )  
               b(2) = (  0.000000  0.627278  0.000000 )  
               b(3) = (  0.000000  0.000000  0.180495 )  


     PseudoPot. # 1 for C  read from file:
     ../pseudo/c_pbe_v1.2.uspp.F.UPF
     MD5 check sum: d1aef80898a10debaa0f26306b886e00
     Pseudo is Ultrasoft + core correction, Zval =  4.0
     Generated by new atomic code, or converted to UPF format
     Using radial grid of  721 points,  4 beta functions with: 
                l(1) =   0
                l(2) =   0
                l(3) =   1
                l(4) =   1
     Q(r) pseudized with  8 coefficients,  rinner =    1.100   1.100   1.100


     PseudoPot. # 2 for F  read from file:
     ../pseudo/f_pbe_v1.4.uspp.F.UPF
     MD5 check sum: 4c38b6a325caf53ec0e86aed9459de46
     Pseudo is Ultrasoft, Zval =  7.0
     Generated by new atomic code, or converted to UPF format
     Using radial grid of  799 points,  4 beta functions with: 
                l(1) =   0
                l(2) =   0
                l(3) =   1
                l(4) =   1
     Q(r) pseudized with  8 coefficients,  rinner =    0.950   0.950   0.950


     atomic species   valence    mass     pseudopotential
        C              4.00    12.01070     C ( 1.00)
        F              7.00    18.99840     F ( 1.00)

      8 Sym. Ops., with inversion, found ( 4 have fractional translation)


                                    s                        frac. trans.

      isym =  1     identity                                     

 cryst.   s( 1) = (     1          0          0      )
                  (     0          1          0      )
                  (     0          0          1      )

 cart.    s( 1) = (  1.0000000  0.0000000  0.0000000 )
                  (  0.0000000  1.0000000  0.0000000 )
                  (  0.0000000  0.0000000  1.0000000 )


      isym =  2     180 deg rotation - cart. axis [0,0,1]        

 cryst.   s( 2) = (    -1          0          0      )    f =(  0.5000000 )
                  (     0         -1          0      )       (  0.5000000 )
                  (     0          0          1      )       (  0.0000000 )

 cart.    s( 2) = ( -1.0000000  0.0000000  0.0000000 )    f =(  0.5000000 )
                  (  0.0000000 -1.0000000  0.0000000 )       (  0.7970945 )
                  (  0.0000000  0.0000000  1.0000000 )       (  0.0000000 )


      isym =  3     180 deg rotation - cart. axis [0,1,0]        

 cryst.   s( 3) = (    -1          0          0      )    f =(  0.5000000 )
                  (     0          1          0      )       ( -0.5000000 )
                  (     0          0         -1      )       (  0.0000000 )

 cart.    s( 3) = ( -1.0000000  0.0000000  0.0000000 )    f =(  0.5000000 )
                  (  0.0000000  1.0000000  0.0000000 )       ( -0.7970945 )
                  (  0.0000000  0.0000000 -1.0000000 )       (  0.0000000 )


      isym =  4     180 deg rotation - cart. axis [1,0,0]        

 cryst.   s( 4) = (     1          0          0      )
                  (     0         -1          0      )
                  (     0          0         -1      )

 cart.    s( 4) = (  1.0000000  0.0000000  0.0000000 )
                  (  0.0000000 -1.0000000  0.0000000 )
                  (  0.0000000  0.0000000 -1.0000000 )


      isym =  5     inversion                                    

 cryst.   s( 5) = (    -1          0          0      )
                  (     0         -1          0      )
                  (     0          0         -1      )

 cart.    s( 5) = ( -1.0000000  0.0000000  0.0000000 )
                  (  0.0000000 -1.0000000  0.0000000 )
                  (  0.0000000  0.0000000 -1.0000000 )


      isym =  6     inv. 180 deg rotation - cart. axis [0,0,1]   

 cryst.   s( 6) = (     1          0          0      )    f =(  0.5000000 )
                  (     0          1          0      )       ( -0.5000000 )
                  (     0          0         -1      )       (  0.0000000 )

 cart.    s( 6) = (  1.0000000  0.0000000  0.0000000 )    f =(  0.5000000 )
                  (  0.0000000  1.0000000  0.0000000 )       ( -0.7970945 )
                  (  0.0000000  0.0000000 -1.0000000 )       (  0.0000000 )


      isym =  7     inv. 180 deg rotation - cart. axis [0,1,0]   

 cryst.   s( 7) = (     1          0          0      )    f =(  0.5000000 )
                  (     0         -1          0      )       (  0.5000000 )
                  (     0          0          1      )       (  0.0000000 )

 cart.    s( 7) = (  1.0000000  0.0000000  0.0000000 )    f =(  0.5000000 )
                  (  0.0000000 -1.0000000  0.0000000 )       (  0.7970945 )
                  (  0.0000000  0.0000000  1.0000000 )       (  0.0000000 )


      isym =  8     inv. 180 deg rotation - cart. axis [1,0,0]   

 cryst.   s( 8) = (    -1          0          0      )
                  (     0          1          0      )
                  (     0          0          1      )

 cart.    s( 8) = ( -1.0000000  0.0000000  0.0000000 )
                  (  0.0000000  1.0000000  0.0000000 )
                  (  0.0000000  0.0000000  1.0000000 )


   Cartesian axes

     site n.     atom                  positions (alat units)
         1           C   tau(   1) = (   0.5000000   0.2256478   0.1937169  )
         2           C   tau(   2) = (   0.0000000   1.0227422  -0.1937169  )
         3           C   tau(   3) = (   0.0000000   0.5714467   0.1937169  )
         4           C   tau(   4) = (   0.5000000   1.3685411  -0.1937169  )
         5           F   tau(   5) = (   0.5000000  -0.0095812  -0.6719762  )
         6           F   tau(   6) = (   0.0000000   0.7875132   0.6719762  )
         7           F   tau(   7) = (   0.0000000   0.8066757  -0.6719762  )
         8           F   tau(   8) = (   0.5000000   0.0095812   0.6719762  )

   Crystallographic axes

     site n.     atom                  positions (cryst. coord.)
         1           C   tau(   1) = (  0.5000000  0.1415439  0.0349649  )
         2           C   tau(   2) = (  0.0000000  0.6415439 -0.0349649  )
         3           C   tau(   3) = (  0.0000000  0.3584561  0.0349649  )
         4           C   tau(   4) = (  0.5000000  0.8584561 -0.0349649  )
         5           F   tau(   5) = (  0.5000000 -0.0060101 -0.1212881  )
         6           F   tau(   6) = (  0.0000000  0.4939899  0.1212881  )
         7           F   tau(   7) = (  0.0000000  0.5060101 -0.1212881  )
         8           F   tau(   8) = (  0.5000000  0.0060101  0.1212881  )

     number of k points=     4  Marzari-Vanderbilt smearing, width (Ry)=  0.0200
                       cart. coord. in units 2pi/alat
        k(    1) = (   0.0000000   0.0000000   0.0000000), wk =   0.2222222
        k(    2) = (   0.0000000   0.2090927   0.0000000), wk =   0.4444444
        k(    3) = (   0.3333333   0.0000000   0.0000000), wk =   0.4444444
        k(    4) = (   0.3333333   0.2090927   0.0000000), wk =   0.8888889

                       cryst. coord.
        k(    1) = (   0.0000000   0.0000000   0.0000000), wk =   0.2222222
        k(    2) = (   0.0000000   0.3333333   0.0000000), wk =   0.4444444
        k(    3) = (   0.3333333   0.0000000   0.0000000), wk =   0.4444444
        k(    4) = (   0.3333333   0.3333333   0.0000000), wk =   0.8888889

     Dense  grid:  2713169 G-vectors     FFT dimensions: (  90, 144, 480)

     Dynamical RAM for                 wfc:       2.69 MB

     Dynamical RAM for     wfc (w. buffer):      13.46 MB

     Dynamical RAM for           str. fact:       1.66 MB

     Dynamical RAM for           local pot:       0.00 MB

     Dynamical RAM for          nlocal pot:       6.62 MB

     Dynamical RAM for                qrad:       2.42 MB

     Dynamical RAM for          rho,v,vnew:       5.45 MB

     Dynamical RAM for               rhoin:       1.82 MB

     Dynamical RAM for            rho*nmix:      13.25 MB

     Dynamical RAM for           G-vectors:       3.52 MB

     Dynamical RAM for          h,s,v(r/c):       0.12 MB

     Dynamical RAM for          <psi|beta>:       0.03 MB

     Dynamical RAM for                 psi:       5.38 MB

     Dynamical RAM for                hpsi:       5.38 MB

     Dynamical RAM for                spsi:       5.38 MB

     Dynamical RAM for      wfcinit/wfcrot:       6.65 MB

     Dynamical RAM for           addusdens:      38.92 MB

     Dynamical RAM for          addusforce:      44.30 MB

     Dynamical RAM for         addusstress:      41.40 MB

     Estimated static dynamical RAM per process >      42.37 MB

     Estimated max dynamical RAM per process >      99.92 MB

     Estimated total dynamical RAM >       4.88 GB

     Initial potential from superposition of free atoms

     starting charge      43.9998, renormalised to      44.0000

     negative rho (up, down):  6.060E-03 0.000E+00
     Starting wfcs are   32 randomized atomic wfcs

     total cpu time spent up to now is       10.9 secs

     Self-consistent Calculation

     iteration #  1     ecut=   700.00 Ry     beta= 0.70
     Davidson diagonalization with overlap

---- Real-time Memory Report at c_bands before calling an iterative solver
           106 MiB given to the printing process from OS
             0 MiB allocation reported by mallinfo(arena+hblkhd)
        347679 MiB available memory on the node where the printing process lives
------------------
     ethr =  1.00E-02,  avg # of iterations =  3.5

     negative rho (up, down):  1.628E-03 0.000E+00

     total cpu time spent up to now is       44.3 secs

     total energy              =    -240.09619999 Ry
     estimated scf accuracy    <       0.44903116 Ry

     iteration #  2     ecut=   700.00 Ry     beta= 0.70
     Davidson diagonalization with overlap

---- Real-time Memory Report at c_bands before calling an iterative solver
           127 MiB given to the printing process from OS
             0 MiB allocation reported by mallinfo(arena+hblkhd)
        346699 MiB available memory on the node where the printing process lives
------------------
     ethr =  1.02E-03,  avg # of iterations =  3.8

     negative rho (up, down):  1.015E-03 0.000E+00

     total cpu time spent up to now is       78.3 secs

     total energy              =    -240.11410359 Ry
     estimated scf accuracy    <       0.45537110 Ry

     iteration #  3     ecut=   700.00 Ry     beta= 0.70
     Davidson diagonalization with overlap

---- Real-time Memory Report at c_bands before calling an iterative solver
           133 MiB given to the printing process from OS
             0 MiB allocation reported by mallinfo(arena+hblkhd)
        346614 MiB available memory on the node where the printing process lives
------------------
     ethr =  1.02E-03,  avg # of iterations =  2.5

     negative rho (up, down):  1.862E-04 0.000E+00

     total cpu time spent up to now is      105.1 secs

     total energy              =    -240.23275815 Ry
     estimated scf accuracy    <       0.02205374 Ry

     iteration #  4     ecut=   700.00 Ry     beta= 0.70
     Davidson diagonalization with overlap

---- Real-time Memory Report at c_bands before calling an iterative solver
           135 MiB given to the printing process from OS
             0 MiB allocation reported by mallinfo(arena+hblkhd)
        346564 MiB available memory on the node where the printing process lives
------------------
     ethr =  5.01E-05,  avg # of iterations =  3.2

     negative rho (up, down):  3.264E-05 0.000E+00

     total cpu time spent up to now is      134.1 secs

     total energy              =    -240.23506349 Ry
     estimated scf accuracy    <       0.00176085 Ry

     iteration #  5     ecut=   700.00 Ry     beta= 0.70
     Davidson diagonalization with overlap

---- Real-time Memory Report at c_bands before calling an iterative solver
           137 MiB given to the printing process from OS
             0 MiB allocation reported by mallinfo(arena+hblkhd)
        346482 MiB available memory on the node where the printing process lives
------------------
     ethr =  4.00E-06,  avg # of iterations =  4.0

     negative rho (up, down):  1.311E-06 0.000E+00

     total cpu time spent up to now is      168.8 secs

     total energy              =    -240.23545730 Ry
     estimated scf accuracy    <       0.00001880 Ry

     iteration #  6     ecut=   700.00 Ry     beta= 0.70
     Davidson diagonalization with overlap

---- Real-time Memory Report at c_bands before calling an iterative solver
           139 MiB given to the printing process from OS
             0 MiB allocation reported by mallinfo(arena+hblkhd)
        346402 MiB available memory on the node where the printing process lives
------------------
     ethr =  4.27E-08,  avg # of iterations =  3.5

     negative rho (up, down):  1.365E-06 0.000E+00

     total cpu time spent up to now is      201.9 secs

     total energy              =    -240.23546540 Ry
     estimated scf accuracy    <       0.00001867 Ry

     iteration #  7     ecut=   700.00 Ry     beta= 0.70
     Davidson diagonalization with overlap

---- Real-time Memory Report at c_bands before calling an iterative solver
           140 MiB given to the printing process from OS
             0 MiB allocation reported by mallinfo(arena+hblkhd)
        346315 MiB available memory on the node where the printing process lives
------------------
     ethr =  4.24E-08,  avg # of iterations =  1.8

     negative rho (up, down):  1.355E-06 0.000E+00

     total cpu time spent up to now is      223.4 secs

     total energy              =    -240.23546630 Ry
     estimated scf accuracy    <       0.00000168 Ry

     iteration #  8     ecut=   700.00 Ry     beta= 0.70
     Davidson diagonalization with overlap

---- Real-time Memory Report at c_bands before calling an iterative solver
           142 MiB given to the printing process from OS
             0 MiB allocation reported by mallinfo(arena+hblkhd)
        346238 MiB available memory on the node where the printing process lives
------------------
     ethr =  3.81E-09,  avg # of iterations =  3.5

     negative rho (up, down):  1.362E-06 0.000E+00

     total cpu time spent up to now is      257.6 secs

     total energy              =    -240.23546699 Ry
     estimated scf accuracy    <       0.00000053 Ry

     iteration #  9     ecut=   700.00 Ry     beta= 0.70
     Davidson diagonalization with overlap

---- Real-time Memory Report at c_bands before calling an iterative solver
           143 MiB given to the printing process from OS
             0 MiB allocation reported by mallinfo(arena+hblkhd)
        345663 MiB available memory on the node where the printing process lives
------------------
     ethr =  1.21E-09,  avg # of iterations =  2.0

     negative rho (up, down):  1.347E-06 0.000E+00

     total cpu time spent up to now is      281.0 secs

     total energy              =    -240.23546706 Ry
     estimated scf accuracy    <       0.00000001 Ry

     iteration # 10     ecut=   700.00 Ry     beta= 0.70
     Davidson diagonalization with overlap

---- Real-time Memory Report at c_bands before calling an iterative solver
           145 MiB given to the printing process from OS
             0 MiB allocation reported by mallinfo(arena+hblkhd)
        345560 MiB available memory on the node where the printing process lives
------------------
     ethr =  2.82E-11,  avg # of iterations =  3.5

     negative rho (up, down):  1.345E-06 0.000E+00

     total cpu time spent up to now is      314.0 secs

     End of self-consistent calculation

          k = 0.0000 0.0000 0.0000 (339089 PWs)   bands (ev):

   -28.1766 -27.8955 -26.6424 -26.5251 -18.8040 -15.5369 -13.5703 -11.1170
   -10.3442  -9.9718  -8.6910  -8.2754  -7.6756  -7.5543  -7.3154  -5.4419
    -5.2986  -5.2454  -4.5923  -4.2643  -4.0367  -2.7151   0.8233   3.2723
     3.3904   4.4299

     occupation numbers 
     1.0000   1.0000   1.0000   1.0000   1.0000   1.0000   1.0000   1.0000
     1.0000   1.0000   1.0000   1.0000   1.0000   1.0000   1.0000   1.0000
     1.0000   1.0000   1.0000   1.0000   1.0000   1.0000   0.0000   0.0000
     0.0000   0.0000

          k = 0.0000 0.2091 0.0000 (338975 PWs)   bands (ev):

   -27.9377 -27.7510 -26.8852 -26.7794 -18.2675 -16.8250 -12.5025 -11.2007
    -9.8566  -9.5518  -8.4621  -8.4026  -8.2791  -7.5198  -6.8590  -5.9572
    -5.6937  -5.5434  -4.8639  -4.3581  -3.7261  -3.1007   1.8886   3.2391
     3.5005   4.3740

     occupation numbers 
     1.0000   1.0000   1.0000   1.0000   1.0000   1.0000   1.0000   1.0000
     1.0000   1.0000   1.0000   1.0000   1.0000   1.0000   1.0000   1.0000
     1.0000   1.0000   1.0000   1.0000   1.0000   1.0000   0.0000   0.0000
     0.0000   0.0000

          k = 0.3333 0.0000 0.0000 (339220 PWs)   bands (ev):

   -27.5279 -27.3256 -26.7229 -26.6097 -17.4404 -14.2352 -13.9363 -11.4904
   -10.9730 -10.2606  -9.8240  -9.3612  -9.3422  -8.0847  -7.0341  -6.5382
    -6.3786  -6.2829  -5.8556  -4.9865  -4.8331  -4.5765   2.3947   4.0475
     5.5506   6.9529

     occupation numbers 
     1.0000   1.0000   1.0000   1.0000   1.0000   1.0000   1.0000   1.0000
     1.0000   1.0000   1.0000   1.0000   1.0000   1.0000   1.0000   1.0000
     1.0000   1.0000   1.0000   1.0000   1.0000   1.0000   0.0000   0.0000
     0.0000   0.0000

          k = 0.3333 0.2091 0.0000 (339238 PWs)   bands (ev):

   -27.3837 -27.2502 -26.8237 -26.7351 -16.9513 -15.6100 -13.2469 -12.0489
   -10.9448 -10.5050  -9.6384  -9.5406  -8.5049  -8.4061  -6.7622  -6.4235
    -6.3732  -5.6559  -5.5921  -5.3439  -4.6500  -4.5924   2.9975   4.5392
     5.1530   5.8897

     occupation numbers 
     1.0000   1.0000   1.0000   1.0000   1.0000   1.0000   1.0000   1.0000
     1.0000   1.0000   1.0000   1.0000   1.0000   1.0000   1.0000   1.0000
     1.0000   1.0000   1.0000   1.0000   1.0000   1.0000   0.0000   0.0000
     0.0000   0.0000

     the Fermi energy is    -0.4689 ev

!    total energy              =    -240.23546707 Ry
     estimated scf accuracy    <          1.7E-09 Ry
     smearing contrib. (-TS)   =      -0.00000000 Ry
     internal energy E=F+TS    =    -240.23546707 Ry

     The total energy is F=E-TS. E is the sum of the following terms:
     one-electron contribution =   -1256.48468392 Ry
     hartree contribution      =     642.03365209 Ry
     xc contribution           =     -51.70110794 Ry
     ewald contribution        =     425.91667271 Ry

     convergence has been achieved in  10 iterations

     negative rho (up, down):  1.345E-06 0.000E+00

     Forces acting on atoms (cartesian axes, Ry/au):

     atom    1 type  1   force =     0.00000000    0.00376186   -0.00066950
     atom    2 type  1   force =     0.00000000    0.00376186    0.00066950
     atom    3 type  1   force =     0.00000000   -0.00376186   -0.00066950
     atom    4 type  1   force =     0.00000000   -0.00376186    0.00066950
     atom    5 type  2   force =     0.00000000   -0.00044508    0.00005415
     atom    6 type  2   force =     0.00000000   -0.00044508   -0.00005415
     atom    7 type  2   force =     0.00000000    0.00044508    0.00005415
     atom    8 type  2   force =     0.00000000    0.00044508   -0.00005415
     The non-local contrib.  to forces
     atom    1 type  1   force =     0.00000000   -0.14125954    0.36239690
     atom    2 type  1   force =     0.00000000   -0.14125954   -0.36239690
     atom    3 type  1   force =    -0.00000000    0.14125954    0.36239690
     atom    4 type  1   force =     0.00000000    0.14125954   -0.36239690
     atom    5 type  2   force =     0.00000000   -0.96979798    2.28257669
     atom    6 type  2   force =     0.00000000   -0.96979798   -2.28257669
     atom    7 type  2   force =     0.00000000    0.96979798    2.28257669
     atom    8 type  2   force =    -0.00000000    0.96979798   -2.28257669
     The ionic contribution  to forces
     atom    1 type  1   force =    -0.00000000    0.91439883    2.68704709
     atom    2 type  1   force =    -0.00000000    0.91439883   -2.68704709
     atom    3 type  1   force =     0.00000000   -0.91439883    2.68704709
     atom    4 type  1   force =     0.00000000   -0.91439883   -2.68704709
     atom    5 type  2   force =     0.00000000    4.28250416  -44.49509369
     atom    6 type  2   force =     0.00000000    4.28250416   44.49509369
     atom    7 type  2   force =    -0.00000000   -4.28250416  -44.49509369
     atom    8 type  2   force =     0.00000000   -4.28250416   44.49509369
     The local contribution  to forces
     atom    1 type  1   force =     0.00000000   -0.77015971   -3.04751733
     atom    2 type  1   force =     0.00000000   -0.77015971    3.04751733
     atom    3 type  1   force =    -0.00000000    0.77015971   -3.04751733
     atom    4 type  1   force =    -0.00000000    0.77015971    3.04751733
     atom    5 type  2   force =    -0.00000000   -3.31317626   42.21266664
     atom    6 type  2   force =    -0.00000000   -3.31317626  -42.21266664
     atom    7 type  2   force =     0.00000000    3.31317626   42.21266664
     atom    8 type  2   force =     0.00000000    3.31317626  -42.21266664
     The core correction contribution to forces
     atom    1 type  1   force =     0.00000000    0.00078573   -0.00261810
     atom    2 type  1   force =     0.00000000    0.00078573    0.00261810
     atom    3 type  1   force =    -0.00000000   -0.00078573   -0.00261810
     atom    4 type  1   force =    -0.00000000   -0.00078573    0.00261810
     atom    5 type  2   force =     0.00000000    0.00000000    0.00000000
     atom    6 type  2   force =     0.00000000    0.00000000    0.00000000
     atom    7 type  2   force =     0.00000000    0.00000000    0.00000000
     atom    8 type  2   force =     0.00000000    0.00000000    0.00000000
     The Hubbard contrib.    to forces
     atom    1 type  1   force =     0.00000000    0.00000000    0.00000000
     atom    2 type  1   force =     0.00000000    0.00000000    0.00000000
     atom    3 type  1   force =     0.00000000    0.00000000    0.00000000
     atom    4 type  1   force =     0.00000000    0.00000000    0.00000000
     atom    5 type  2   force =     0.00000000    0.00000000    0.00000000
     atom    6 type  2   force =     0.00000000    0.00000000    0.00000000
     atom    7 type  2   force =     0.00000000    0.00000000    0.00000000
     atom    8 type  2   force =     0.00000000    0.00000000    0.00000000
     The SCF correction term to forces
     atom    1 type  1   force =    -0.00000000   -0.00000344    0.00002193
     atom    2 type  1   force =    -0.00000000   -0.00000344   -0.00002193
     atom    3 type  1   force =     0.00000000    0.00000344    0.00002193
     atom    4 type  1   force =     0.00000000    0.00000344   -0.00002193
     atom    5 type  2   force =     0.00000000    0.00002500   -0.00009548
     atom    6 type  2   force =     0.00000000    0.00002500    0.00009548
     atom    7 type  2   force =     0.00000000   -0.00002500   -0.00009548
     atom    8 type  2   force =     0.00000000   -0.00002500    0.00009548

     Total force =     0.007694     Total SCF correction =     0.000202


     Computing stress (Cartesian axis) and pressure


     negative rho (up, down):  1.345E-06 0.000E+00
          total   stress  (Ry/bohr**3)                   (kbar)     P=        1.01
   0.00004061   0.00000000   0.00000000            5.97        0.00        0.00
   0.00000000  -0.00001647   0.00000000            0.00       -2.42        0.00
   0.00000000   0.00000000  -0.00000347            0.00        0.00       -0.51

     kinetic stress (kbar)   9153.77      0.00      0.00
                                0.00   8952.56      0.00
                                0.00      0.00   8301.94

     local   stress (kbar)-161118.13     -0.00     -0.00
                               -0.00-162205.77     -0.00
                               -0.00     -0.00 155409.21

     nonloc. stress (kbar)   1179.31      0.00      0.00
                                0.00   1133.02      0.00
                                0.00      0.00    960.84

     hartree stress (kbar)  80820.65      0.00      0.00
                                0.00  81109.30     -0.00
                                0.00     -0.00 -74837.91

     exc-cor stress (kbar)  -2142.18     -0.00     -0.00
                               -0.00  -2138.14      0.00
                               -0.00      0.00  -2131.41

     corecor stress (kbar)    -73.77      0.00      0.00
                                0.00    -73.44     -0.00
                                0.00     -0.00    -72.52

     ewald   stress (kbar)  72186.31     -0.00      0.00
                               -0.00  73220.06      0.00
                                0.00      0.00 -87630.66

     hubbard stress (kbar)      0.00      0.00      0.00
                                0.00      0.00      0.00
                                0.00      0.00      0.00

     DFT-D   stress (kbar)      0.00      0.00      0.00
                                0.00      0.00      0.00
                                0.00      0.00      0.00

     XDM     stress (kbar)      0.00      0.00      0.00
                                0.00      0.00      0.00
                                0.00      0.00      0.00

     dft-nl  stress (kbar)      0.00      0.00      0.00
                                0.00      0.00      0.00
                                0.00      0.00      0.00

     TS-vdW  stress (kbar)      0.00      0.00      0.00
                                0.00      0.00      0.00
                                0.00      0.00      0.00

     MDB     stress (kbar)      0.00      0.00      0.00
                                0.00      0.00      0.00
                                0.00      0.00      0.00

     3D-RISM stress (kbar)      0.00      0.00      0.00
                                0.00      0.00      0.00
                                0.00      0.00      0.00


     Writing all to output data dir ../tmp/fgz.save/

     init_run     :      7.70s CPU     10.49s WALL (       1 calls)
     electrons    :    199.85s CPU    303.95s WALL (       1 calls)
     forces       :      5.29s CPU      7.81s WALL (       1 calls)
     stress       :      5.52s CPU      9.15s WALL (       1 calls)

     Called by init_run:
     wfcinit      :      5.38s CPU      7.84s WALL (       1 calls)
     wfcinit:atom :      0.08s CPU      0.13s WALL (       4 calls)
     wfcinit:wfcr :      5.14s CPU      7.46s WALL (       4 calls)
     potinit      :      0.33s CPU      0.35s WALL (       1 calls)
     hinit0       :      0.90s CPU      0.94s WALL (       1 calls)

     Called by electrons:
     c_bands      :    182.60s CPU    274.71s WALL (      10 calls)
     sum_band     :     13.31s CPU     23.16s WALL (      10 calls)
     v_of_rho     :      0.84s CPU      0.85s WALL (      11 calls)
     v_h          :      0.05s CPU      0.05s WALL (      11 calls)
     v_xc         :      0.92s CPU      0.94s WALL (      13 calls)
     newd         :      2.67s CPU      4.32s WALL (      11 calls)
     mix_rho      :      0.30s CPU      0.30s WALL (      10 calls)

     Called by c_bands:
     init_us_2    :      0.22s CPU      0.27s WALL (      92 calls)
     init_us_2:cp :      0.22s CPU      0.27s WALL (      92 calls)
     cegterg      :    176.73s CPU    264.41s WALL (      40 calls)

     Called by sum_band:
     sum_band:wei :      0.00s CPU      0.00s WALL (      10 calls)
     sum_band:loo :      9.90s CPU     16.80s WALL (      10 calls)
     sum_band:buf :      0.02s CPU      0.04s WALL (      40 calls)
     sum_band:ini :      0.07s CPU      0.09s WALL (      40 calls)
     sum_band:cal :      7.49s CPU     13.91s WALL (      40 calls)
     sum_band:bec :      0.00s CPU      0.00s WALL (      40 calls)
     addusdens    :      2.34s CPU      5.14s WALL (      10 calls)
     addusd:skk   :      0.01s CPU      0.06s WALL (      20 calls)
     addusd:dgemm :      1.24s CPU      3.23s WALL (      20 calls)
     addusd:qvan2 :      1.04s CPU      1.79s WALL (      20 calls)

     Called by *egterg:
     cdiaghg      :     18.86s CPU      9.36s WALL (     165 calls)
     cegterg:over :     49.58s CPU     74.23s WALL (     125 calls)
     cegterg:upda :      7.29s CPU     11.87s WALL (     125 calls)
     cegterg:last :      8.94s CPU     14.47s WALL (      89 calls)
     h_psi        :     55.11s CPU     98.98s WALL (     169 calls)
     s_psi        :      2.90s CPU      5.25s WALL (     169 calls)
     g_psi        :      0.07s CPU      0.14s WALL (     125 calls)

     Called by h_psi:
     h_psi:calbec :     30.78s CPU     58.40s WALL (     169 calls)
     vloc_psi     :     13.87s CPU     15.38s WALL (     169 calls)
     add_vuspsi   :     10.40s CPU     25.11s WALL (     169 calls)

     General routines
     calbec       :     43.73s CPU     80.54s WALL (     229 calls)
     fft          :      1.25s CPU      1.27s WALL (     146 calls)
     ffts         :      0.05s CPU      0.06s WALL (      10 calls)
     fftw         :     15.35s CPU     16.90s WALL (    6870 calls)

     Parallel routines

     PWSCF        :   3m38.88s CPU   5m36.11s WALL


   This run was terminated on:   3:17:40  20Jan2024            

=------------------------------------------------------------------------------=
   JOB DONE.
=------------------------------------------------------------------------------=
