
     Program PWSCF v.7.1 starts on 20Jan2024 at  4:26:43 

     This program is part of the open-source Quantum ESPRESSO suite
     for quantum simulation of materials; please cite
         "P. Giannozzi et al., J. Phys.:Condens. Matter 21 395502 (2009);
         "P. Giannozzi et al., J. Phys.:Condens. Matter 29 465901 (2017);
         "P. Giannozzi et al., J. Chem. Phys. 152 154105 (2020);
          URL http://www.quantum-espresso.org", 
     in publications or presentations arising from this work. More details at
     http://www.quantum-espresso.org/quote

     Parallel version (MPI), running on    50 processors

     MPI processes distributed on     1 nodes
     347730 MiB available memory on the printing compute node when the environment starts

     Reading input from kpoint.12.in

     Current dimensions of program PWSCF are:
     Max number of different atomic species (ntypx) = 10
     Max number of k-points (npk) =  40000
     Max angular momentum in pseudopotentials (lmaxx) =  4
     Message from routine setup:
     using ibrav=0 with symmetry is DISCOURAGED, use correct ibrav instead

     R & G space division:  proc/nbgrp/npool/nimage =      50
     Subspace diagonalization in iterative solution of the eigenvalue problem:
     a serial algorithm will be used


     Parallelization info
     --------------------
     sticks:   dense  smooth     PW     G-vecs:    dense   smooth      PW
     Min         175     175     46                54253    54253    7366
     Max         176     176     47                54271    54271    7387
     Sum        8763    8763   2323              2713169  2713169  368693

     Using Slab Decomposition



     bravais-lattice index     =            0
     lattice parameter (alat)  =       4.9702  a.u.
     unit-cell volume          =    1084.4437 (a.u.)^3
     number of atoms/cell      =            8
     number of atomic types    =            2
     number of electrons       =        44.00
     number of Kohn-Sham states=           26
     kinetic-energy cutoff     =     700.0000  Ry
     charge density cutoff     =    2800.0000  Ry
     scf convergence threshold =      1.0E-08
     mixing beta               =       0.7000
     number of iterations used =            8  plain     mixing
     Exchange-correlation=  SLA  PW   PBX  PBC
                           (   1   4   3   4   0   0   0)

     celldm(1)=   4.970237  celldm(2)=   0.000000  celldm(3)=   0.000000
     celldm(4)=   0.000000  celldm(5)=   0.000000  celldm(6)=   0.000000

     crystal axes: (cart. coord. in units of alat)
               a(1) = (   1.000000   0.000000   0.000000 )  
               a(2) = (   0.000000   1.594189   0.000000 )  
               a(3) = (   0.000000   0.000000   5.540333 )  

     reciprocal axes: (cart. coord. in units 2 pi/alat)
               b(1) = (  1.000000  0.000000  0.000000 )  
               b(2) = (  0.000000  0.627278  0.000000 )  
               b(3) = (  0.000000  0.000000  0.180495 )  


     PseudoPot. # 1 for C  read from file:
     ../pseudo/c_pbe_v1.2.uspp.F.UPF
     MD5 check sum: d1aef80898a10debaa0f26306b886e00
     Pseudo is Ultrasoft + core correction, Zval =  4.0
     Generated by new atomic code, or converted to UPF format
     Using radial grid of  721 points,  4 beta functions with: 
                l(1) =   0
                l(2) =   0
                l(3) =   1
                l(4) =   1
     Q(r) pseudized with  8 coefficients,  rinner =    1.100   1.100   1.100


     PseudoPot. # 2 for F  read from file:
     ../pseudo/f_pbe_v1.4.uspp.F.UPF
     MD5 check sum: 4c38b6a325caf53ec0e86aed9459de46
     Pseudo is Ultrasoft, Zval =  7.0
     Generated by new atomic code, or converted to UPF format
     Using radial grid of  799 points,  4 beta functions with: 
                l(1) =   0
                l(2) =   0
                l(3) =   1
                l(4) =   1
     Q(r) pseudized with  8 coefficients,  rinner =    0.950   0.950   0.950


     atomic species   valence    mass     pseudopotential
        C              4.00    12.01070     C ( 1.00)
        F              7.00    18.99840     F ( 1.00)

      8 Sym. Ops., with inversion, found ( 4 have fractional translation)


                                    s                        frac. trans.

      isym =  1     identity                                     

 cryst.   s( 1) = (     1          0          0      )
                  (     0          1          0      )
                  (     0          0          1      )

 cart.    s( 1) = (  1.0000000  0.0000000  0.0000000 )
                  (  0.0000000  1.0000000  0.0000000 )
                  (  0.0000000  0.0000000  1.0000000 )


      isym =  2     180 deg rotation - cart. axis [0,0,1]        

 cryst.   s( 2) = (    -1          0          0      )    f =(  0.5000000 )
                  (     0         -1          0      )       (  0.5000000 )
                  (     0          0          1      )       (  0.0000000 )

 cart.    s( 2) = ( -1.0000000  0.0000000  0.0000000 )    f =(  0.5000000 )
                  (  0.0000000 -1.0000000  0.0000000 )       (  0.7970945 )
                  (  0.0000000  0.0000000  1.0000000 )       (  0.0000000 )


      isym =  3     180 deg rotation - cart. axis [0,1,0]        

 cryst.   s( 3) = (    -1          0          0      )    f =(  0.5000000 )
                  (     0          1          0      )       ( -0.5000000 )
                  (     0          0         -1      )       (  0.0000000 )

 cart.    s( 3) = ( -1.0000000  0.0000000  0.0000000 )    f =(  0.5000000 )
                  (  0.0000000  1.0000000  0.0000000 )       ( -0.7970945 )
                  (  0.0000000  0.0000000 -1.0000000 )       (  0.0000000 )


      isym =  4     180 deg rotation - cart. axis [1,0,0]        

 cryst.   s( 4) = (     1          0          0      )
                  (     0         -1          0      )
                  (     0          0         -1      )

 cart.    s( 4) = (  1.0000000  0.0000000  0.0000000 )
                  (  0.0000000 -1.0000000  0.0000000 )
                  (  0.0000000  0.0000000 -1.0000000 )


      isym =  5     inversion                                    

 cryst.   s( 5) = (    -1          0          0      )
                  (     0         -1          0      )
                  (     0          0         -1      )

 cart.    s( 5) = ( -1.0000000  0.0000000  0.0000000 )
                  (  0.0000000 -1.0000000  0.0000000 )
                  (  0.0000000  0.0000000 -1.0000000 )


      isym =  6     inv. 180 deg rotation - cart. axis [0,0,1]   

 cryst.   s( 6) = (     1          0          0      )    f =(  0.5000000 )
                  (     0          1          0      )       ( -0.5000000 )
                  (     0          0         -1      )       (  0.0000000 )

 cart.    s( 6) = (  1.0000000  0.0000000  0.0000000 )    f =(  0.5000000 )
                  (  0.0000000  1.0000000  0.0000000 )       ( -0.7970945 )
                  (  0.0000000  0.0000000 -1.0000000 )       (  0.0000000 )


      isym =  7     inv. 180 deg rotation - cart. axis [0,1,0]   

 cryst.   s( 7) = (     1          0          0      )    f =(  0.5000000 )
                  (     0         -1          0      )       (  0.5000000 )
                  (     0          0          1      )       (  0.0000000 )

 cart.    s( 7) = (  1.0000000  0.0000000  0.0000000 )    f =(  0.5000000 )
                  (  0.0000000 -1.0000000  0.0000000 )       (  0.7970945 )
                  (  0.0000000  0.0000000  1.0000000 )       (  0.0000000 )


      isym =  8     inv. 180 deg rotation - cart. axis [1,0,0]   

 cryst.   s( 8) = (    -1          0          0      )
                  (     0          1          0      )
                  (     0          0          1      )

 cart.    s( 8) = ( -1.0000000  0.0000000  0.0000000 )
                  (  0.0000000  1.0000000  0.0000000 )
                  (  0.0000000  0.0000000  1.0000000 )


   Cartesian axes

     site n.     atom                  positions (alat units)
         1           C   tau(   1) = (   0.5000000   0.2256478   0.1937169  )
         2           C   tau(   2) = (   0.0000000   1.0227422  -0.1937169  )
         3           C   tau(   3) = (   0.0000000   0.5714467   0.1937169  )
         4           C   tau(   4) = (   0.5000000   1.3685411  -0.1937169  )
         5           F   tau(   5) = (   0.5000000  -0.0095812  -0.6719762  )
         6           F   tau(   6) = (   0.0000000   0.7875132   0.6719762  )
         7           F   tau(   7) = (   0.0000000   0.8066757  -0.6719762  )
         8           F   tau(   8) = (   0.5000000   0.0095812   0.6719762  )

   Crystallographic axes

     site n.     atom                  positions (cryst. coord.)
         1           C   tau(   1) = (  0.5000000  0.1415439  0.0349649  )
         2           C   tau(   2) = (  0.0000000  0.6415439 -0.0349649  )
         3           C   tau(   3) = (  0.0000000  0.3584561  0.0349649  )
         4           C   tau(   4) = (  0.5000000  0.8584561 -0.0349649  )
         5           F   tau(   5) = (  0.5000000 -0.0060101 -0.1212881  )
         6           F   tau(   6) = (  0.0000000  0.4939899  0.1212881  )
         7           F   tau(   7) = (  0.0000000  0.5060101 -0.1212881  )
         8           F   tau(   8) = (  0.5000000  0.0060101  0.1212881  )

     number of k points=    49  Marzari-Vanderbilt smearing, width (Ry)=  0.0200
                       cart. coord. in units 2pi/alat
        k(    1) = (   0.0000000   0.0000000   0.0000000), wk =   0.0138889
        k(    2) = (   0.0000000   0.0522732   0.0000000), wk =   0.0277778
        k(    3) = (   0.0000000   0.1045464   0.0000000), wk =   0.0277778
        k(    4) = (   0.0000000   0.1568196   0.0000000), wk =   0.0277778
        k(    5) = (   0.0000000   0.2090927   0.0000000), wk =   0.0277778
        k(    6) = (   0.0000000   0.2613659   0.0000000), wk =   0.0277778
        k(    7) = (   0.0000000  -0.3136391   0.0000000), wk =   0.0138889
        k(    8) = (   0.0833333   0.0000000   0.0000000), wk =   0.0277778
        k(    9) = (   0.0833333   0.0522732   0.0000000), wk =   0.0555556
        k(   10) = (   0.0833333   0.1045464   0.0000000), wk =   0.0555556
        k(   11) = (   0.0833333   0.1568196   0.0000000), wk =   0.0555556
        k(   12) = (   0.0833333   0.2090927   0.0000000), wk =   0.0555556
        k(   13) = (   0.0833333   0.2613659   0.0000000), wk =   0.0555556
        k(   14) = (   0.0833333  -0.3136391   0.0000000), wk =   0.0277778
        k(   15) = (   0.1666667   0.0000000   0.0000000), wk =   0.0277778
        k(   16) = (   0.1666667   0.0522732   0.0000000), wk =   0.0555556
        k(   17) = (   0.1666667   0.1045464   0.0000000), wk =   0.0555556
        k(   18) = (   0.1666667   0.1568196   0.0000000), wk =   0.0555556
        k(   19) = (   0.1666667   0.2090927   0.0000000), wk =   0.0555556
        k(   20) = (   0.1666667   0.2613659   0.0000000), wk =   0.0555556
        k(   21) = (   0.1666667  -0.3136391   0.0000000), wk =   0.0277778
        k(   22) = (   0.2500000   0.0000000   0.0000000), wk =   0.0277778
        k(   23) = (   0.2500000   0.0522732   0.0000000), wk =   0.0555556
        k(   24) = (   0.2500000   0.1045464   0.0000000), wk =   0.0555556
        k(   25) = (   0.2500000   0.1568196   0.0000000), wk =   0.0555556
        k(   26) = (   0.2500000   0.2090927   0.0000000), wk =   0.0555556
        k(   27) = (   0.2500000   0.2613659   0.0000000), wk =   0.0555556
        k(   28) = (   0.2500000  -0.3136391   0.0000000), wk =   0.0277778
        k(   29) = (   0.3333333   0.0000000   0.0000000), wk =   0.0277778
        k(   30) = (   0.3333333   0.0522732   0.0000000), wk =   0.0555556
        k(   31) = (   0.3333333   0.1045464   0.0000000), wk =   0.0555556
        k(   32) = (   0.3333333   0.1568196   0.0000000), wk =   0.0555556
        k(   33) = (   0.3333333   0.2090927   0.0000000), wk =   0.0555556
        k(   34) = (   0.3333333   0.2613659   0.0000000), wk =   0.0555556
        k(   35) = (   0.3333333  -0.3136391   0.0000000), wk =   0.0277778
        k(   36) = (   0.4166667   0.0000000   0.0000000), wk =   0.0277778
        k(   37) = (   0.4166667   0.0522732   0.0000000), wk =   0.0555556
        k(   38) = (   0.4166667   0.1045464   0.0000000), wk =   0.0555556
        k(   39) = (   0.4166667   0.1568196   0.0000000), wk =   0.0555556
        k(   40) = (   0.4166667   0.2090927   0.0000000), wk =   0.0555556
        k(   41) = (   0.4166667   0.2613659   0.0000000), wk =   0.0555556
        k(   42) = (   0.4166667  -0.3136391   0.0000000), wk =   0.0277778
        k(   43) = (  -0.5000000   0.0000000   0.0000000), wk =   0.0138889
        k(   44) = (  -0.5000000   0.0522732   0.0000000), wk =   0.0277778
        k(   45) = (  -0.5000000   0.1045464   0.0000000), wk =   0.0277778
        k(   46) = (  -0.5000000   0.1568196   0.0000000), wk =   0.0277778
        k(   47) = (  -0.5000000   0.2090927   0.0000000), wk =   0.0277778
        k(   48) = (  -0.5000000   0.2613659   0.0000000), wk =   0.0277778
        k(   49) = (  -0.5000000  -0.3136391   0.0000000), wk =   0.0138889

                       cryst. coord.
        k(    1) = (   0.0000000   0.0000000   0.0000000), wk =   0.0138889
        k(    2) = (   0.0000000   0.0833333   0.0000000), wk =   0.0277778
        k(    3) = (   0.0000000   0.1666667   0.0000000), wk =   0.0277778
        k(    4) = (   0.0000000   0.2500000   0.0000000), wk =   0.0277778
        k(    5) = (   0.0000000   0.3333333   0.0000000), wk =   0.0277778
        k(    6) = (   0.0000000   0.4166667   0.0000000), wk =   0.0277778
        k(    7) = (   0.0000000  -0.5000000   0.0000000), wk =   0.0138889
        k(    8) = (   0.0833333   0.0000000   0.0000000), wk =   0.0277778
        k(    9) = (   0.0833333   0.0833333   0.0000000), wk =   0.0555556
        k(   10) = (   0.0833333   0.1666667   0.0000000), wk =   0.0555556
        k(   11) = (   0.0833333   0.2500000   0.0000000), wk =   0.0555556
        k(   12) = (   0.0833333   0.3333333   0.0000000), wk =   0.0555556
        k(   13) = (   0.0833333   0.4166667   0.0000000), wk =   0.0555556
        k(   14) = (   0.0833333  -0.5000000   0.0000000), wk =   0.0277778
        k(   15) = (   0.1666667   0.0000000   0.0000000), wk =   0.0277778
        k(   16) = (   0.1666667   0.0833333   0.0000000), wk =   0.0555556
        k(   17) = (   0.1666667   0.1666667   0.0000000), wk =   0.0555556
        k(   18) = (   0.1666667   0.2500000   0.0000000), wk =   0.0555556
        k(   19) = (   0.1666667   0.3333333   0.0000000), wk =   0.0555556
        k(   20) = (   0.1666667   0.4166667   0.0000000), wk =   0.0555556
        k(   21) = (   0.1666667  -0.5000000   0.0000000), wk =   0.0277778
        k(   22) = (   0.2500000   0.0000000   0.0000000), wk =   0.0277778
        k(   23) = (   0.2500000   0.0833333   0.0000000), wk =   0.0555556
        k(   24) = (   0.2500000   0.1666667   0.0000000), wk =   0.0555556
        k(   25) = (   0.2500000   0.2500000   0.0000000), wk =   0.0555556
        k(   26) = (   0.2500000   0.3333333   0.0000000), wk =   0.0555556
        k(   27) = (   0.2500000   0.4166667   0.0000000), wk =   0.0555556
        k(   28) = (   0.2500000  -0.5000000   0.0000000), wk =   0.0277778
        k(   29) = (   0.3333333   0.0000000   0.0000000), wk =   0.0277778
        k(   30) = (   0.3333333   0.0833333   0.0000000), wk =   0.0555556
        k(   31) = (   0.3333333   0.1666667   0.0000000), wk =   0.0555556
        k(   32) = (   0.3333333   0.2500000   0.0000000), wk =   0.0555556
        k(   33) = (   0.3333333   0.3333333   0.0000000), wk =   0.0555556
        k(   34) = (   0.3333333   0.4166667   0.0000000), wk =   0.0555556
        k(   35) = (   0.3333333  -0.5000000   0.0000000), wk =   0.0277778
        k(   36) = (   0.4166667   0.0000000   0.0000000), wk =   0.0277778
        k(   37) = (   0.4166667   0.0833333   0.0000000), wk =   0.0555556
        k(   38) = (   0.4166667   0.1666667   0.0000000), wk =   0.0555556
        k(   39) = (   0.4166667   0.2500000   0.0000000), wk =   0.0555556
        k(   40) = (   0.4166667   0.3333333   0.0000000), wk =   0.0555556
        k(   41) = (   0.4166667   0.4166667   0.0000000), wk =   0.0555556
        k(   42) = (   0.4166667  -0.5000000   0.0000000), wk =   0.0277778
        k(   43) = (  -0.5000000   0.0000000   0.0000000), wk =   0.0138889
        k(   44) = (  -0.5000000   0.0833333   0.0000000), wk =   0.0277778
        k(   45) = (  -0.5000000   0.1666667   0.0000000), wk =   0.0277778
        k(   46) = (  -0.5000000   0.2500000   0.0000000), wk =   0.0277778
        k(   47) = (  -0.5000000   0.3333333   0.0000000), wk =   0.0277778
        k(   48) = (  -0.5000000   0.4166667   0.0000000), wk =   0.0277778
        k(   49) = (  -0.5000000  -0.5000000   0.0000000), wk =   0.0138889

     Dense  grid:  2713169 G-vectors     FFT dimensions: (  90, 144, 480)

     Dynamical RAM for                 wfc:       2.69 MB

     Dynamical RAM for     wfc (w. buffer):     134.55 MB

     Dynamical RAM for           str. fact:       1.66 MB

     Dynamical RAM for           local pot:       0.00 MB

     Dynamical RAM for          nlocal pot:       6.62 MB

     Dynamical RAM for                qrad:       2.42 MB

     Dynamical RAM for          rho,v,vnew:       5.45 MB

     Dynamical RAM for               rhoin:       1.82 MB

     Dynamical RAM for            rho*nmix:      13.25 MB

     Dynamical RAM for           G-vectors:       3.52 MB

     Dynamical RAM for          h,s,v(r/c):       0.12 MB

     Dynamical RAM for          <psi|beta>:       0.03 MB

     Dynamical RAM for                 psi:       5.38 MB

     Dynamical RAM for                hpsi:       5.38 MB

     Dynamical RAM for                spsi:       5.38 MB

     Dynamical RAM for      wfcinit/wfcrot:       6.65 MB

     Dynamical RAM for           addusdens:      38.92 MB

     Dynamical RAM for          addusforce:      44.30 MB

     Dynamical RAM for         addusstress:      41.40 MB

     Estimated static dynamical RAM per process >     163.47 MB

     Estimated max dynamical RAM per process >     221.02 MB

     Estimated total dynamical RAM >      10.79 GB

     Initial potential from superposition of free atoms

     starting charge      43.9998, renormalised to      44.0000

     negative rho (up, down):  6.060E-03 0.000E+00
     Starting wfcs are   32 randomized atomic wfcs

     total cpu time spent up to now is       89.9 secs

     Self-consistent Calculation

     iteration #  1     ecut=   700.00 Ry     beta= 0.70
     Davidson diagonalization with overlap

---- Real-time Memory Report at c_bands before calling an iterative solver
           208 MiB given to the printing process from OS
             0 MiB allocation reported by mallinfo(arena+hblkhd)
        338759 MiB available memory on the node where the printing process lives
------------------
     ethr =  1.00E-02,  avg # of iterations =  3.8

     negative rho (up, down):  1.630E-03 0.000E+00

     total cpu time spent up to now is      502.4 secs

     total energy              =    -240.10921616 Ry
     estimated scf accuracy    <       0.44490065 Ry

     iteration #  2     ecut=   700.00 Ry     beta= 0.70
     Davidson diagonalization with overlap

---- Real-time Memory Report at c_bands before calling an iterative solver
           252 MiB given to the printing process from OS
             0 MiB allocation reported by mallinfo(arena+hblkhd)
        336441 MiB available memory on the node where the printing process lives
------------------
     ethr =  1.01E-03,  avg # of iterations =  3.8

     negative rho (up, down):  1.011E-03 0.000E+00

     total cpu time spent up to now is      915.1 secs

     total energy              =    -240.13050706 Ry
     estimated scf accuracy    <       0.44018360 Ry

     iteration #  3     ecut=   700.00 Ry     beta= 0.70
     Davidson diagonalization with overlap

---- Real-time Memory Report at c_bands before calling an iterative solver
           256 MiB given to the printing process from OS
             0 MiB allocation reported by mallinfo(arena+hblkhd)
        336330 MiB available memory on the node where the printing process lives
------------------
     ethr =  1.00E-03,  avg # of iterations =  2.2

     negative rho (up, down):  1.842E-04 0.000E+00

     total cpu time spent up to now is     1210.7 secs

     total energy              =    -240.24485569 Ry
     estimated scf accuracy    <       0.02065560 Ry

     iteration #  4     ecut=   700.00 Ry     beta= 0.70
     Davidson diagonalization with overlap

---- Real-time Memory Report at c_bands before calling an iterative solver
           258 MiB given to the printing process from OS
             0 MiB allocation reported by mallinfo(arena+hblkhd)
        336229 MiB available memory on the node where the printing process lives
------------------
     ethr =  4.69E-05,  avg # of iterations =  4.4

     negative rho (up, down):  3.267E-05 0.000E+00

     total cpu time spent up to now is     1654.6 secs

     total energy              =    -240.24707761 Ry
     estimated scf accuracy    <       0.00170145 Ry

     iteration #  5     ecut=   700.00 Ry     beta= 0.70
     Davidson diagonalization with overlap

---- Real-time Memory Report at c_bands before calling an iterative solver
           260 MiB given to the printing process from OS
             0 MiB allocation reported by mallinfo(arena+hblkhd)
        335419 MiB available memory on the node where the printing process lives
------------------
     ethr =  3.87E-06,  avg # of iterations =  4.8

     negative rho (up, down):  1.248E-06 0.000E+00

     total cpu time spent up to now is     2144.6 secs

     total energy              =    -240.24742900 Ry
     estimated scf accuracy    <       0.00002313 Ry

     iteration #  6     ecut=   700.00 Ry     beta= 0.70
     Davidson diagonalization with overlap

---- Real-time Memory Report at c_bands before calling an iterative solver
           261 MiB given to the printing process from OS
             0 MiB allocation reported by mallinfo(arena+hblkhd)
        335356 MiB available memory on the node where the printing process lives
------------------
     ethr =  5.26E-08,  avg # of iterations =  3.9

     negative rho (up, down):  1.335E-06 0.000E+00

     total cpu time spent up to now is     2570.2 secs

     total energy              =    -240.24744010 Ry
     estimated scf accuracy    <       0.00002013 Ry

     iteration #  7     ecut=   700.00 Ry     beta= 0.70
     Davidson diagonalization with overlap

---- Real-time Memory Report at c_bands before calling an iterative solver
           263 MiB given to the printing process from OS
             0 MiB allocation reported by mallinfo(arena+hblkhd)
        335285 MiB available memory on the node where the printing process lives
------------------
     ethr =  4.57E-08,  avg # of iterations =  2.2

     negative rho (up, down):  1.349E-06 0.000E+00

     total cpu time spent up to now is     2851.9 secs

     total energy              =    -240.24744106 Ry
     estimated scf accuracy    <       0.00000181 Ry

     iteration #  8     ecut=   700.00 Ry     beta= 0.70
     Davidson diagonalization with overlap

---- Real-time Memory Report at c_bands before calling an iterative solver
           265 MiB given to the printing process from OS
             0 MiB allocation reported by mallinfo(arena+hblkhd)
        335199 MiB available memory on the node where the printing process lives
------------------
     ethr =  4.12E-09,  avg # of iterations =  3.2

     negative rho (up, down):  1.353E-06 0.000E+00

     total cpu time spent up to now is     3222.9 secs

     total energy              =    -240.24744180 Ry
     estimated scf accuracy    <       0.00000055 Ry

     iteration #  9     ecut=   700.00 Ry     beta= 0.70
     Davidson diagonalization with overlap

---- Real-time Memory Report at c_bands before calling an iterative solver
           266 MiB given to the printing process from OS
             0 MiB allocation reported by mallinfo(arena+hblkhd)
        335099 MiB available memory on the node where the printing process lives
------------------
     ethr =  1.25E-09,  avg # of iterations =  2.0

     negative rho (up, down):  1.339E-06 0.000E+00

     total cpu time spent up to now is     3496.7 secs

     total energy              =    -240.24744187 Ry
     estimated scf accuracy    <       0.00000001 Ry

     iteration # 10     ecut=   700.00 Ry     beta= 0.70
     Davidson diagonalization with overlap

---- Real-time Memory Report at c_bands before calling an iterative solver
           268 MiB given to the printing process from OS
             0 MiB allocation reported by mallinfo(arena+hblkhd)
        335008 MiB available memory on the node where the printing process lives
------------------
     ethr =  3.18E-11,  avg # of iterations =  3.6

     negative rho (up, down):  1.335E-06 0.000E+00

     total cpu time spent up to now is     3895.0 secs

     End of self-consistent calculation

          k = 0.0000 0.0000 0.0000 (339089 PWs)   bands (ev):

   -28.1834 -27.9022 -26.6494 -26.5318 -18.8098 -15.5402 -13.5843 -11.1232
   -10.3489  -9.9809  -8.6995  -8.2805  -7.6842  -7.5566  -7.3229  -5.4480
    -5.3045  -5.2488  -4.5965  -4.2727  -4.0437  -2.7239   0.8195   3.2719
     3.3854   4.4165

     occupation numbers 
     1.0000   1.0000   1.0000   1.0000   1.0000   1.0000   1.0000   1.0000
     1.0000   1.0000   1.0000   1.0000   1.0000   1.0000   1.0000   1.0000
     1.0000   1.0000   1.0000   1.0000   1.0000   1.0000   0.0000   0.0000
     0.0000   0.0000

          k = 0.0000 0.0523 0.0000 (339133 PWs)   bands (ev):

   -28.1665 -27.8898 -26.6698 -26.5510 -18.7756 -15.6704 -13.4754 -11.1012
   -10.2844 -10.0012  -8.6718  -8.2877  -7.7379  -7.5023  -7.3309  -5.4751
    -5.3243  -5.3237  -4.6309  -4.2521  -4.0213  -2.7537   0.9005   3.2863
     3.3826   4.5206

     occupation numbers 
     1.0000   1.0000   1.0000   1.0000   1.0000   1.0000   1.0000   1.0000
     1.0000   1.0000   1.0000   1.0000   1.0000   1.0000   1.0000   1.0000
     1.0000   1.0000   1.0000   1.0000   1.0000   1.0000   0.0000   0.0000
     0.0000   0.0000

          k = 0.0000 0.1045 0.0000 (339011 PWs)   bands (ev):

   -28.1172 -27.8551 -26.7268 -26.6059 -18.6734 -15.9917 -13.2103 -11.0589
   -10.1048 -10.0380  -8.5902  -8.3132  -7.8864  -7.3593  -7.3536  -5.5459
    -5.5080  -5.3795  -4.7173  -4.2283  -3.9572  -2.8371   1.1293   3.3294
     3.3693   4.8209

     occupation numbers 
     1.0000   1.0000   1.0000   1.0000   1.0000   1.0000   1.0000   1.0000
     1.0000   1.0000   1.0000   1.0000   1.0000   1.0000   1.0000   1.0000
     1.0000   1.0000   1.0000   1.0000   1.0000   1.0000   0.0000   0.0000
     0.0000   0.0000

          k = 0.0000 0.1568 0.0000 (339063 PWs)   bands (ev):

   -28.0403 -27.8058 -26.8082 -26.6885 -18.5051 -16.3996 -12.8751 -11.0703
   -10.0163  -9.8464  -8.4593  -8.3684  -8.1182  -7.4204  -7.1290  -5.7353
    -5.6323  -5.4591  -4.8136  -4.2581  -3.8585  -2.9605   1.4715   3.3298
     3.4003   4.6522

     occupation numbers 
     1.0000   1.0000   1.0000   1.0000   1.0000   1.0000   1.0000   1.0000
     1.0000   1.0000   1.0000   1.0000   1.0000   1.0000   1.0000   1.0000
     1.0000   1.0000   1.0000   1.0000   1.0000   1.0000   0.0000   0.0000
     0.0000   0.0000

          k = 0.0000 0.2091 0.0000 (338975 PWs)   bands (ev):

   -27.9447 -27.7579 -26.8919 -26.7860 -18.2733 -16.8306 -12.5130 -11.2094
    -9.8637  -9.5572  -8.4677  -8.4105  -8.2876  -7.5279  -6.8618  -5.9606
    -5.6995  -5.5492  -4.8691  -4.3656  -3.7334  -3.1088   1.8841   3.2349
     3.4991   4.3676

     occupation numbers 
     1.0000   1.0000   1.0000   1.0000   1.0000   1.0000   1.0000   1.0000
     1.0000   1.0000   1.0000   1.0000   1.0000   1.0000   1.0000   1.0000
     1.0000   1.0000   1.0000   1.0000   1.0000   1.0000   0.0000   0.0000
     0.0000   0.0000

          k = 0.0000 0.2614 0.0000 (338946 PWs)   bands (ev):

   -27.8458 -27.7372 -26.9458 -26.8790 -17.9825 -17.2503 -12.1449 -11.4644
    -9.6017  -9.3099  -8.7038  -8.6170  -8.0883  -7.6853  -6.5978  -6.1672
    -5.7229  -5.6342  -4.8406  -4.5354  -3.5889  -3.2692   2.3209   3.0428
     3.6302   4.0562

     occupation numbers 
     1.0000   1.0000   1.0000   1.0000   1.0000   1.0000   1.0000   1.0000
     1.0000   1.0000   1.0000   1.0000   1.0000   1.0000   1.0000   1.0000
     1.0000   1.0000   1.0000   1.0000   1.0000   1.0000   0.0000   0.0000
     0.0000   0.0000

          k = 0.0000-0.3136 0.0000 (338886 PWs)   bands (ev):

   -27.7679 -27.7679 -26.9410 -26.9410 -17.6386 -17.6386 -11.7879 -11.7879
    -9.3269  -9.3269  -8.7750  -8.7750  -7.8797  -7.8797  -6.3691  -6.3691
    -5.6976  -5.6976  -4.7161  -4.7161  -3.4318  -3.4318   2.7277   2.7277
     3.8079   3.8079

     occupation numbers 
     1.0000   1.0000   1.0000   1.0000   1.0000   1.0000   1.0000   1.0000
     1.0000   1.0000   1.0000   1.0000   1.0000   1.0000   1.0000   1.0000
     1.0000   1.0000   1.0000   1.0000   1.0000   1.0000   0.0000   0.0000
     0.0000   0.0000

          k = 0.0833 0.0000 0.0000 (339146 PWs)   bands (ev):

   -28.1357 -27.8602 -26.6479 -26.5316 -18.7232 -15.4560 -13.5477 -11.0533
   -10.3061  -9.9914  -9.1193  -8.3357  -7.6397  -7.5940  -7.5024  -5.6504
    -5.4724  -5.2845  -4.6435  -4.2587  -4.2126  -3.0553   0.9587   3.8620
     3.9282   4.1673

     occupation numbers 
     1.0000   1.0000   1.0000   1.0000   1.0000   1.0000   1.0000   1.0000
     1.0000   1.0000   1.0000   1.0000   1.0000   1.0000   1.0000   1.0000
     1.0000   1.0000   1.0000   1.0000   1.0000   1.0000   0.0000   0.0000
     0.0000   0.0000

          k = 0.0833 0.0523 0.0000 (339165 PWs)   bands (ev):

   -28.1192 -27.8481 -26.6675 -26.5500 -18.6892 -15.5880 -13.4378 -11.0351
   -10.2471 -10.0120  -9.0905  -8.3472  -7.6946  -7.6039  -7.4471  -5.6948
    -5.4912  -5.3026  -4.6635  -4.2407  -4.2130  -3.0884   1.0333   3.8588
     3.9403   4.2618

     occupation numbers 
     1.0000   1.0000   1.0000   1.0000   1.0000   1.0000   1.0000   1.0000
     1.0000   1.0000   1.0000   1.0000   1.0000   1.0000   1.0000   1.0000
     1.0000   1.0000   1.0000   1.0000   1.0000   1.0000   0.0000   0.0000
     0.0000   0.0000

          k = 0.0833 0.1045 0.0000 (339150 PWs)   bands (ev):

   -28.0710 -27.8143 -26.7223 -26.6029 -18.5876 -15.9118 -13.1726 -11.0038
   -10.0854 -10.0495  -9.0055  -8.3854  -7.8391  -7.6358  -7.3004  -5.7890
    -5.5399  -5.3787  -4.7209  -4.2267  -4.1839  -3.1760   1.2466   3.8422
     3.9755   4.5075

     occupation numbers 
     1.0000   1.0000   1.0000   1.0000   1.0000   1.0000   1.0000   1.0000
     1.0000   1.0000   1.0000   1.0000   1.0000   1.0000   1.0000   1.0000
     1.0000   1.0000   1.0000   1.0000   1.0000   1.0000   0.0000   0.0000
     0.0000   0.0000

          k = 0.0833 0.1568 0.0000 (339013 PWs)   bands (ev):

   -27.9959 -27.7663 -26.8006 -26.6827 -18.4201 -16.3209 -12.8403 -11.0313
   -10.0311  -9.8605  -8.8740  -8.4595  -8.0477  -7.6940  -7.0816  -5.8774
    -5.6012  -5.5231  -4.7973  -4.2839  -4.0900  -3.2930   1.5716   3.7834
     4.0310   4.6826

     occupation numbers 
     1.0000   1.0000   1.0000   1.0000   1.0000   1.0000   1.0000   1.0000
     1.0000   1.0000   1.0000   1.0000   1.0000   1.0000   1.0000   1.0000
     1.0000   1.0000   1.0000   1.0000   1.0000   1.0000   0.0000   0.0000
     0.0000   0.0000

          k = 0.0833 0.2091 0.0000 (338985 PWs)   bands (ev):

   -27.9026 -27.7197 -26.8811 -26.7769 -18.1895 -16.7517 -12.4834 -11.1835
    -9.8924  -9.6225  -8.7500  -8.5753  -8.2484  -7.7840  -6.8198  -5.9525
    -5.6910  -5.6598  -4.8542  -4.4056  -3.9691  -3.4196   1.9751   3.6209
     4.1019   4.5466

     occupation numbers 
     1.0000   1.0000   1.0000   1.0000   1.0000   1.0000   1.0000   1.0000
     1.0000   1.0000   1.0000   1.0000   1.0000   1.0000   1.0000   1.0000
     1.0000   1.0000   1.0000   1.0000   1.0000   1.0000   0.0000   0.0000
     0.0000   0.0000

          k = 0.0833 0.2614 0.0000 (338922 PWs)   bands (ev):

   -27.8061 -27.6998 -26.9327 -26.8670 -17.8999 -17.1705 -12.1208 -11.4443
    -9.6625  -9.4367  -8.7934  -8.7215  -8.2446  -7.9123  -6.5523  -6.0905
    -5.7737  -5.7117  -4.8450  -4.5760  -3.8324  -3.5515   2.4236   3.3057
     4.1829   4.3834

     occupation numbers 
     1.0000   1.0000   1.0000   1.0000   1.0000   1.0000   1.0000   1.0000
     1.0000   1.0000   1.0000   1.0000   1.0000   1.0000   1.0000   1.0000
     1.0000   1.0000   1.0000   1.0000   1.0000   1.0000   0.0000   0.0000
     0.0000   0.0000

          k = 0.0833-0.3136 0.0000 (338918 PWs)   bands (ev):

   -27.7299 -27.7299 -26.9275 -26.9275 -17.5574 -17.5574 -11.7676 -11.7676
    -9.4457  -9.4457  -8.8398  -8.8398  -8.0788  -8.0788  -6.3051  -6.3051
    -5.7573  -5.7573  -4.7432  -4.7432  -3.6903  -3.6903   2.8827   2.8827
     4.2722   4.2722

     occupation numbers 
     1.0000   1.0000   1.0000   1.0000   1.0000   1.0000   1.0000   1.0000
     1.0000   1.0000   1.0000   1.0000   1.0000   1.0000   1.0000   1.0000
     1.0000   1.0000   1.0000   1.0000   1.0000   1.0000   0.0000   0.0000
     0.0000   0.0000

          k = 0.1667 0.0000 0.0000 (339176 PWs)   bands (ev):

   -27.9985 -27.7394 -26.6493 -26.5358 -18.4647 -15.2058 -13.4685 -10.8518
   -10.1860 -10.0569 -10.0539  -8.5371  -8.2634  -7.6598  -7.3469  -6.0242
    -5.8912  -5.4388  -4.9184  -4.5708  -4.1927  -3.7630   1.3231   3.8933
     4.8911   5.5461

     occupation numbers 
     1.0000   1.0000   1.0000   1.0000   1.0000   1.0000   1.0000   1.0000
     1.0000   1.0000   1.0000   1.0000   1.0000   1.0000   1.0000   1.0000
     1.0000   1.0000   1.0000   1.0000   1.0000   1.0000   0.0000   0.0000
     0.0000   0.0000

          k = 0.1667 0.0523 0.0000 (339199 PWs)   bands (ev):

   -27.9831 -27.7283 -26.6665 -26.5522 -18.4312 -15.3434 -13.3565 -10.8462
   -10.2064 -10.0781  -9.9512  -8.5801  -8.2455  -7.7169  -7.3036  -6.0473
    -5.8977  -5.4113  -4.8991  -4.5724  -4.2148  -3.8060   1.3837   3.9902
     4.8853   5.5642

     occupation numbers 
     1.0000   1.0000   1.0000   1.0000   1.0000   1.0000   1.0000   1.0000
     1.0000   1.0000   1.0000   1.0000   1.0000   1.0000   1.0000   1.0000
     1.0000   1.0000   1.0000   1.0000   1.0000   1.0000   0.0000   0.0000
     0.0000   0.0000

          k = 0.1667 0.1045 0.0000 (339167 PWs)   bands (ev):

   -27.9385 -27.6972 -26.7148 -26.5994 -18.3313 -15.6749 -13.0942 -10.8529
   -10.1950 -10.1264  -9.7232  -8.6848  -8.2126  -7.8711  -7.1823  -6.0811
    -5.9115  -5.3846  -4.8608  -4.5643  -4.2834  -3.9070   1.5609   4.2532
     4.8576   5.5943

     occupation numbers 
     1.0000   1.0000   1.0000   1.0000   1.0000   1.0000   1.0000   1.0000
     1.0000   1.0000   1.0000   1.0000   1.0000   1.0000   1.0000   1.0000
     1.0000   1.0000   1.0000   1.0000   1.0000   1.0000   0.0000   0.0000
     0.0000   0.0000

          k = 0.1667 0.1568 0.0000 (339110 PWs)   bands (ev):

   -27.8689 -27.6532 -26.7838 -26.6707 -18.1664 -16.0870 -12.7751 -10.9371
   -10.1385 -10.1317  -9.4353  -8.8172  -8.1900  -8.0850  -6.9971  -6.0834
    -5.9206  -5.4454  -4.8508  -4.5118  -4.4064  -3.9999   1.8426   4.4693
     4.8859   5.5019

     occupation numbers 
     1.0000   1.0000   1.0000   1.0000   1.0000   1.0000   1.0000   1.0000
     1.0000   1.0000   1.0000   1.0000   1.0000   1.0000   1.0000   1.0000
     1.0000   1.0000   1.0000   1.0000   1.0000   1.0000   0.0000   0.0000
     0.0000   0.0000

          k = 0.1667 0.2091 0.0000 (339090 PWs)   bands (ev):

   -27.7825 -27.6108 -26.8546 -26.7553 -17.9392 -16.5170 -12.4375 -11.1382
   -10.0578 -10.0534  -9.1566  -8.9464  -8.2995  -8.1942  -6.7652  -6.0512
    -5.9162  -5.6207  -4.8783  -4.5723  -4.4090  -4.0550   2.2127   4.1687
     5.2308   5.5240

     occupation numbers 
     1.0000   1.0000   1.0000   1.0000   1.0000   1.0000   1.0000   1.0000
     1.0000   1.0000   1.0000   1.0000   1.0000   1.0000   1.0000   1.0000
     1.0000   1.0000   1.0000   1.0000   1.0000   1.0000   0.0000   0.0000
     0.0000   0.0000

          k = 0.1667 0.2614 0.0000 (339036 PWs)   bands (ev):

   -27.6931 -27.5934 -26.8992 -26.8369 -17.6537 -16.9327 -12.0933 -11.4234
    -9.9659  -9.9591  -9.0300  -9.0062  -8.4023  -8.2414  -6.5034  -6.0367
    -5.9035  -5.8429  -4.8967  -4.7376  -4.2894  -4.1057   2.6536   3.6705
     5.3599   5.4744

     occupation numbers 
     1.0000   1.0000   1.0000   1.0000   1.0000   1.0000   1.0000   1.0000
     1.0000   1.0000   1.0000   1.0000   1.0000   1.0000   1.0000   1.0000
     1.0000   1.0000   1.0000   1.0000   1.0000   1.0000   0.0000   0.0000
     0.0000   0.0000

          k = 0.1667-0.3136 0.0000 (339016 PWs)   bands (ev):

   -27.6222 -27.6222 -26.8927 -26.8927 -17.3156 -17.3156 -11.7505 -11.7505
    -9.9197  -9.9197  -9.0266  -9.0266  -8.3341  -8.3341  -6.2292  -6.2292
    -5.9006  -5.9006  -4.8554  -4.8554  -4.1827  -4.1827   3.1477   3.1477
     5.4224   5.4224

     occupation numbers 
     1.0000   1.0000   1.0000   1.0000   1.0000   1.0000   1.0000   1.0000
     1.0000   1.0000   1.0000   1.0000   1.0000   1.0000   1.0000   1.0000
     1.0000   1.0000   1.0000   1.0000   1.0000   1.0000   0.0000   0.0000
     0.0000   0.0000

          k = 0.2500 0.0000 0.0000 (339186 PWs)   bands (ev):

   -27.7890 -27.5554 -26.6695 -26.5582 -18.0375 -14.7964 -13.4897 -11.0300
   -10.5499 -10.3130 -10.0140  -8.9745  -8.9279  -7.8137  -7.1248  -6.3648
    -6.2894  -5.7834  -5.4206  -4.7162  -4.4561  -4.3330   1.8185   3.8256
     5.7650   6.2970

     occupation numbers 
     1.0000   1.0000   1.0000   1.0000   1.0000   1.0000   1.0000   1.0000
     1.0000   1.0000   1.0000   1.0000   1.0000   1.0000   1.0000   1.0000
     1.0000   1.0000   1.0000   1.0000   1.0000   1.0000   0.0000   0.0000
     0.0000   0.0000

          k = 0.2500 0.0523 0.0000 (339172 PWs)   bands (ev):

   -27.7757 -27.5459 -26.6830 -26.5714 -18.0050 -14.9460 -13.3795 -11.0078
   -10.5840 -10.3444  -9.9477  -9.0966  -8.7963  -7.8770  -7.1010  -6.3516
    -6.2940  -5.7212  -5.3819  -4.7106  -4.5513  -4.3177   1.8645   3.9107
     5.7394   6.3038

     occupation numbers 
     1.0000   1.0000   1.0000   1.0000   1.0000   1.0000   1.0000   1.0000
     1.0000   1.0000   1.0000   1.0000   1.0000   1.0000   1.0000   1.0000
     1.0000   1.0000   1.0000   1.0000   1.0000   1.0000   0.0000   0.0000
     0.0000   0.0000

          k = 0.2500 0.1045 0.0000 (339151 PWs)   bands (ev):

   -27.7371 -27.5196 -26.7209 -26.6094 -17.9079 -15.2908 -13.1413 -10.9452
   -10.7218 -10.3919  -9.7678  -9.2134  -8.6517  -8.0375  -7.0296  -6.3188
    -6.2846  -5.5875  -5.2833  -4.7455  -4.6949  -4.3388   2.0028   4.1457
     5.6212   6.2318

     occupation numbers 
     1.0000   1.0000   1.0000   1.0000   1.0000   1.0000   1.0000   1.0000
     1.0000   1.0000   1.0000   1.0000   1.0000   1.0000   1.0000   1.0000
     1.0000   1.0000   1.0000   1.0000   1.0000   1.0000   0.0000   0.0000
     0.0000   0.0000

          k = 0.2500 0.1568 0.0000 (339198 PWs)   bands (ev):

   -27.6769 -27.4826 -26.7750 -26.6672 -17.7476 -15.7061 -12.8693 -10.9753
   -10.8517 -10.4133  -9.5318  -9.2978  -8.5268  -8.2307  -6.9098  -6.2737
    -6.2438  -5.4974  -5.1707  -4.9532  -4.6675  -4.3963   2.2341   4.4463
     5.3396   6.1539

     occupation numbers 
     1.0000   1.0000   1.0000   1.0000   1.0000   1.0000   1.0000   1.0000
     1.0000   1.0000   1.0000   1.0000   1.0000   1.0000   1.0000   1.0000
     1.0000   1.0000   1.0000   1.0000   1.0000   1.0000   0.0000   0.0000
     0.0000   0.0000

          k = 0.2500 0.2091 0.0000 (339134 PWs)   bands (ev):

   -27.6023 -27.4478 -26.8299 -26.7366 -17.5265 -16.1330 -12.5854 -11.2933
   -10.7405 -10.4284  -9.3447  -9.3334  -8.4344  -8.3796  -6.7395  -6.2132
    -6.1914  -5.5920  -5.0993  -5.0672  -4.6176  -4.4475   2.5572   4.4431
     5.2496   6.2824

     occupation numbers 
     1.0000   1.0000   1.0000   1.0000   1.0000   1.0000   1.0000   1.0000
     1.0000   1.0000   1.0000   1.0000   1.0000   1.0000   1.0000   1.0000
     1.0000   1.0000   1.0000   1.0000   1.0000   1.0000   0.0000   0.0000
     0.0000   0.0000

          k = 0.2500 0.2614 0.0000 (339146 PWs)   bands (ev):

   -27.5250 -27.4354 -26.8625 -26.8046 -17.2482 -16.5424 -12.2862 -11.6326
   -10.6271 -10.4621  -9.3449  -9.2651  -8.4204  -8.3880  -6.5226  -6.1797
    -6.1332  -5.8281  -5.1009  -5.0894  -4.5503  -4.4712   2.9672   3.9789
     5.5411   6.0586

     occupation numbers 
     1.0000   1.0000   1.0000   1.0000   1.0000   1.0000   1.0000   1.0000
     1.0000   1.0000   1.0000   1.0000   1.0000   1.0000   1.0000   1.0000
     1.0000   1.0000   1.0000   1.0000   1.0000   1.0000   0.0000   0.0000
     0.0000   0.0000

          k = 0.2500-0.3136 0.0000 (339196 PWs)   bands (ev):

   -27.4627 -27.4627 -26.8531 -26.8531 -16.9177 -16.9177 -11.9678 -11.9678
   -10.5292 -10.5292  -9.3019  -9.3019  -8.3935  -8.3935  -6.2958  -6.2958
    -6.0249  -6.0249  -5.1045  -5.1045  -4.4969  -4.4969   3.4514   3.4514
     5.8217   5.8217

     occupation numbers 
     1.0000   1.0000   1.0000   1.0000   1.0000   1.0000   1.0000   1.0000
     1.0000   1.0000   1.0000   1.0000   1.0000   1.0000   1.0000   1.0000
     1.0000   1.0000   1.0000   1.0000   1.0000   1.0000   0.0000   0.0000
     0.0000   0.0000

          k = 0.3333 0.0000 0.0000 (339220 PWs)   bands (ev):

   -27.5349 -27.3323 -26.7299 -26.6165 -17.4470 -14.2395 -13.9475 -11.4991
   -10.9806 -10.2688  -9.8298  -9.3684  -9.3493  -8.0925  -7.0380  -6.5413
    -6.3830  -6.2863  -5.8601  -4.9902  -4.8382  -4.5842   2.3900   4.0392
     5.5442   6.9372

     occupation numbers 
     1.0000   1.0000   1.0000   1.0000   1.0000   1.0000   1.0000   1.0000
     1.0000   1.0000   1.0000   1.0000   1.0000   1.0000   1.0000   1.0000
     1.0000   1.0000   1.0000   1.0000   1.0000   1.0000   0.0000   0.0000
     0.0000   0.0000

          k = 0.3333 0.0523 0.0000 (339185 PWs)   bands (ev):

   -27.5246 -27.3253 -26.7387 -26.6255 -17.4159 -14.4409 -13.8178 -11.4393
   -11.0860 -10.2850  -9.7905  -9.5088  -9.1447  -8.1541  -6.9921  -6.5732
    -6.3921  -6.2034  -5.7871  -5.0829  -4.8209  -4.5526   2.4246   4.0957
     5.5179   6.9289

     occupation numbers 
     1.0000   1.0000   1.0000   1.0000   1.0000   1.0000   1.0000   1.0000
     1.0000   1.0000   1.0000   1.0000   1.0000   1.0000   1.0000   1.0000
     1.0000   1.0000   1.0000   1.0000   1.0000   1.0000   0.0000   0.0000
     0.0000   0.0000

          k = 0.3333 0.1045 0.0000 (339214 PWs)   bands (ev):

   -27.4947 -27.3061 -26.7631 -26.6518 -17.3231 -14.7995 -13.6409 -11.3508
   -11.2923 -10.3413  -9.6902  -9.5874  -8.9074  -8.2861  -6.8945  -6.6141
    -6.3771  -6.0236  -5.6256  -5.2778  -4.7744  -4.5261   2.5314   4.2536
     5.4295   6.8956

     occupation numbers 
     1.0000   1.0000   1.0000   1.0000   1.0000   1.0000   1.0000   1.0000
     1.0000   1.0000   1.0000   1.0000   1.0000   1.0000   1.0000   1.0000
     1.0000   1.0000   1.0000   1.0000   1.0000   1.0000   0.0000   0.0000
     0.0000   0.0000

          k = 0.3333 0.1568 0.0000 (339169 PWs)   bands (ev):

   -27.4483 -27.2799 -26.7974 -26.6923 -17.1697 -15.2045 -13.4598 -11.6930
   -11.1175 -10.4243  -9.6257  -9.5861  -8.6870  -8.3926  -6.8162  -6.5742
    -6.3548  -5.8066  -5.4827  -5.4605  -4.7130  -4.5498   2.7182   4.4622
     5.2678   6.1789

     occupation numbers 
     1.0000   1.0000   1.0000   1.0000   1.0000   1.0000   1.0000   1.0000
     1.0000   1.0000   1.0000   1.0000   1.0000   1.0000   1.0000   1.0000
     1.0000   1.0000   1.0000   1.0000   1.0000   1.0000   0.0000   0.0000
     0.0000   0.0000

          k = 0.3333 0.2091 0.0000 (339238 PWs)   bands (ev):

   -27.3907 -27.2571 -26.8306 -26.7418 -16.9579 -15.6169 -13.2551 -12.0568
   -10.9529 -10.5121  -9.6464  -9.5478  -8.5115  -8.4124  -6.7655  -6.4288
    -6.3773  -5.6600  -5.5963  -5.3482  -4.6559  -4.5998   2.9924   4.5318
     5.1442   5.8793

     occupation numbers 
     1.0000   1.0000   1.0000   1.0000   1.0000   1.0000   1.0000   1.0000
     1.0000   1.0000   1.0000   1.0000   1.0000   1.0000   1.0000   1.0000
     1.0000   1.0000   1.0000   1.0000   1.0000   1.0000   0.0000   0.0000
     0.0000   0.0000

          k = 0.3333 0.2614 0.0000 (339226 PWs)   bands (ev):

   -27.3303 -27.2532 -26.8460 -26.7922 -16.6909 -16.0117 -13.0139 -12.4091
   -10.8119 -10.5996  -9.6488  -9.5785  -8.3983  -8.3744  -6.6934  -6.4681
    -6.2224  -5.8057  -5.4516  -5.3141  -4.6262  -4.6226   3.3542   4.2295
     5.2608   5.6394

     occupation numbers 
     1.0000   1.0000   1.0000   1.0000   1.0000   1.0000   1.0000   1.0000
     1.0000   1.0000   1.0000   1.0000   1.0000   1.0000   1.0000   1.0000
     1.0000   1.0000   1.0000   1.0000   1.0000   1.0000   0.0000   0.0000
     0.0000   0.0000

          k = 0.3333-0.3136 0.0000 (339306 PWs)   bands (ev):

   -27.2796 -27.2796 -26.8316 -26.8316 -16.3732 -16.3732 -12.7312 -12.7312
   -10.6959 -10.6959  -9.6244  -9.6244  -8.3552  -8.3552  -6.5882  -6.5882
    -5.9980  -5.9980  -5.3544  -5.3544  -4.6205  -4.6205   3.7850   3.7850
     5.4428   5.4428

     occupation numbers 
     1.0000   1.0000   1.0000   1.0000   1.0000   1.0000   1.0000   1.0000
     1.0000   1.0000   1.0000   1.0000   1.0000   1.0000   1.0000   1.0000
     1.0000   1.0000   1.0000   1.0000   1.0000   1.0000   0.0000   0.0000
     0.0000   0.0000

          k = 0.4167 0.0000 0.0000 (339274 PWs)   bands (ev):

   -27.2710 -27.1004 -26.8491 -26.7257 -16.7012 -14.8442 -13.5509 -11.8684
   -11.3604 -10.4532  -9.6761  -9.4849  -9.3280  -8.4726  -7.1578  -6.7711
    -6.3751  -6.2482  -6.1561  -5.4322  -4.9287  -4.8205   3.0361   4.5325
     4.6486   6.2179

     occupation numbers 
     1.0000   1.0000   1.0000   1.0000   1.0000   1.0000   1.0000   1.0000
     1.0000   1.0000   1.0000   1.0000   1.0000   1.0000   1.0000   1.0000
     1.0000   1.0000   1.0000   1.0000   1.0000   1.0000   0.0000   0.0000
     0.0000   0.0000

          k = 0.4167 0.0523 0.0000 (339251 PWs)   bands (ev):

   -27.2647 -27.0970 -26.8523 -26.7301 -16.6722 -14.8341 -13.6542 -11.9888
   -11.2833 -10.4194  -9.6714  -9.6302  -9.1519  -8.5000  -7.0873  -6.7046
    -6.4281  -6.3843  -5.9741  -5.4908  -4.8995  -4.7736   3.0629   4.5466
     4.6564   6.0956

     occupation numbers 
     1.0000   1.0000   1.0000   1.0000   1.0000   1.0000   1.0000   1.0000
     1.0000   1.0000   1.0000   1.0000   1.0000   1.0000   1.0000   1.0000
     1.0000   1.0000   1.0000   1.0000   1.0000   1.0000   0.0000   0.0000
     0.0000   0.0000

          k = 0.4167 0.1045 0.0000 (339249 PWs)   bands (ev):

   -27.2465 -27.0879 -26.8608 -26.7432 -16.5858 -14.8195 -13.8901 -12.2833
   -11.1103 -10.3774  -9.7824  -9.6756  -8.9052  -8.5316  -6.9106  -6.6211
    -6.5217  -6.4267  -5.7730  -5.5888  -4.8245  -4.6967   3.1468   4.5898
     4.6784   5.8404

     occupation numbers 
     1.0000   1.0000   1.0000   1.0000   1.0000   1.0000   1.0000   1.0000
     1.0000   1.0000   1.0000   1.0000   1.0000   1.0000   1.0000   1.0000
     1.0000   1.0000   1.0000   1.0000   1.0000   1.0000   0.0000   0.0000
     0.0000   0.0000

          k = 0.4167 0.1568 0.0000 (339255 PWs)   bands (ev):

   -27.2183 -27.0775 -26.8711 -26.7639 -16.4431 -14.8712 -14.0913 -12.6509
   -10.9310 -10.3955  -9.8700  -9.7194  -8.6698  -8.4976  -6.7846  -6.6640
    -6.5247  -6.2634  -5.6384  -5.6096  -4.7369  -4.6586   3.2958   4.5800
     4.7865   5.5843

     occupation numbers 
     1.0000   1.0000   1.0000   1.0000   1.0000   1.0000   1.0000   1.0000
     1.0000   1.0000   1.0000   1.0000   1.0000   1.0000   1.0000   1.0000
     1.0000   1.0000   1.0000   1.0000   1.0000   1.0000   0.0000   0.0000
     0.0000   0.0000

          k = 0.4167 0.2091 0.0000 (339248 PWs)   bands (ev):

   -27.1830 -27.0734 -26.8762 -26.7905 -16.2462 -15.0819 -14.1007 -13.0295
   -10.7879 -10.4616  -9.9068  -9.7954  -8.4785  -8.4086  -6.8742  -6.6586
    -6.4042  -5.9873  -5.6505  -5.5051  -4.6739  -4.6661   3.5141   4.4884
     4.9684   5.3861

     occupation numbers 
     1.0000   1.0000   1.0000   1.0000   1.0000   1.0000   1.0000   1.0000
     1.0000   1.0000   1.0000   1.0000   1.0000   1.0000   1.0000   1.0000
     1.0000   1.0000   1.0000   1.0000   1.0000   1.0000   0.0000   0.0000
     0.0000   0.0000

          k = 0.4167 0.2614 0.0000 (339236 PWs)   bands (ev):

   -27.1450 -27.0838 -26.8688 -26.8200 -15.9991 -15.3909 -13.9449 -13.3847
   -10.6843 -10.5361  -9.9187  -9.8665  -8.3529  -8.3277  -6.9057  -6.7860
    -6.1305  -5.7808  -5.6695  -5.4805  -4.6814  -4.6561   3.7887   4.3217
     5.1257   5.2651

     occupation numbers 
     1.0000   1.0000   1.0000   1.0000   1.0000   1.0000   1.0000   1.0000
     1.0000   1.0000   1.0000   1.0000   1.0000   1.0000   1.0000   1.0000
     1.0000   1.0000   1.0000   1.0000   1.0000   1.0000   0.0000   0.0000
     0.0000   0.0000

          k = 0.4167-0.3136 0.0000 (339270 PWs)   bands (ev):

   -27.1096 -27.1096 -26.8481 -26.8481 -15.7090 -15.7090 -13.6959 -13.6959
   -10.6066 -10.6066  -9.9080  -9.9080  -8.3030  -8.3030  -6.8741  -6.8741
    -5.8903  -5.8903  -5.5495  -5.5495  -4.6714  -4.6714   4.0775   4.0775
     5.2030   5.2030

     occupation numbers 
     1.0000   1.0000   1.0000   1.0000   1.0000   1.0000   1.0000   1.0000
     1.0000   1.0000   1.0000   1.0000   1.0000   1.0000   1.0000   1.0000
     1.0000   1.0000   1.0000   1.0000   1.0000   1.0000   0.0000   0.0000
     0.0000   0.0000

          k =-0.5000 0.0000 0.0000 (339206 PWs)   bands (ev):

   -27.0333 -27.0333 -26.8904 -26.8904 -15.8172 -15.8172 -12.7504 -12.7504
   -10.9431 -10.9431  -9.5700  -9.5700  -8.9138  -8.9138  -7.0852  -7.0852
    -6.3106  -6.3106  -5.8507  -5.8507  -4.9394  -4.9394   3.7845   3.7845
     5.2720   5.2720

     occupation numbers 
     1.0000   1.0000   1.0000   1.0000   1.0000   1.0000   1.0000   1.0000
     1.0000   1.0000   1.0000   1.0000   1.0000   1.0000   1.0000   1.0000
     1.0000   1.0000   1.0000   1.0000   1.0000   1.0000   0.0000   0.0000
     0.0000   0.0000

          k =-0.5000 0.0523 0.0000 (339276 PWs)   bands (ev):

   -27.0322 -27.0322 -26.8899 -26.8899 -15.7920 -15.7920 -12.8735 -12.8735
   -10.8746 -10.8746  -9.6181  -9.6181  -8.8679  -8.8679  -7.0154  -7.0154
    -6.3765  -6.3765  -5.8193  -5.8193  -4.8974  -4.8974   3.8043   3.8043
     5.2322   5.2322

     occupation numbers 
     1.0000   1.0000   1.0000   1.0000   1.0000   1.0000   1.0000   1.0000
     1.0000   1.0000   1.0000   1.0000   1.0000   1.0000   1.0000   1.0000
     1.0000   1.0000   1.0000   1.0000   1.0000   1.0000   0.0000   0.0000
     0.0000   0.0000

          k =-0.5000 0.1045 0.0000 (339268 PWs)   bands (ev):

   -27.0295 -27.0295 -26.8885 -26.8885 -15.7173 -15.7173 -13.1733 -13.1733
   -10.7355 -10.7355  -9.7337  -9.7337  -8.7450  -8.7450  -6.8339  -6.8339
    -6.5190  -6.5190  -5.7474  -5.7474  -4.8054  -4.8054   3.8658   3.8658
     5.1411   5.1411

     occupation numbers 
     1.0000   1.0000   1.0000   1.0000   1.0000   1.0000   1.0000   1.0000
     1.0000   1.0000   1.0000   1.0000   1.0000   1.0000   1.0000   1.0000
     1.0000   1.0000   1.0000   1.0000   1.0000   1.0000   0.0000   0.0000
     0.0000   0.0000

          k =-0.5000 0.1568 0.0000 (339256 PWs)   bands (ev):

   -27.0257 -27.0257 -26.8865 -26.8865 -15.5967 -15.5967 -13.5413 -13.5413
   -10.6177 -10.6177  -9.8630  -9.8630  -8.5820  -8.5820  -6.7415  -6.7415
    -6.5133  -6.5133  -5.6642  -5.6642  -4.7225  -4.7225   3.9672   3.9672
     5.0564   5.0564

     occupation numbers 
     1.0000   1.0000   1.0000   1.0000   1.0000   1.0000   1.0000   1.0000
     1.0000   1.0000   1.0000   1.0000   1.0000   1.0000   1.0000   1.0000
     1.0000   1.0000   1.0000   1.0000   1.0000   1.0000   0.0000   0.0000
     0.0000   0.0000

          k =-0.5000 0.2091 0.0000 (339206 PWs)   bands (ev):

   -27.0219 -27.0219 -26.8846 -26.8846 -15.4396 -15.4396 -13.9044 -13.9044
   -10.5547 -10.5547  -9.9640  -9.9640  -8.4264  -8.4264  -6.8639  -6.8639
    -6.2361  -6.2361  -5.6035  -5.6035  -4.6825  -4.6825   4.0845   4.0845
     5.0337   5.0337

     occupation numbers 
     1.0000   1.0000   1.0000   1.0000   1.0000   1.0000   1.0000   1.0000
     1.0000   1.0000   1.0000   1.0000   1.0000   1.0000   1.0000   1.0000
     1.0000   1.0000   1.0000   1.0000   1.0000   1.0000   0.0000   0.0000
     0.0000   0.0000

          k =-0.5000 0.2614 0.0000 (339228 PWs)   bands (ev):

   -27.0191 -27.0191 -26.8832 -26.8832 -15.2757 -15.2757 -14.2017 -14.2017
   -10.5359 -10.5359 -10.0202 -10.0202  -8.3185  -8.3185  -6.9543  -6.9543
    -5.9568  -5.9568  -5.6105  -5.6105  -4.6802  -4.6802   4.1693   4.1693
     5.0916   5.0916

     occupation numbers 
     1.0000   1.0000   1.0000   1.0000   1.0000   1.0000   1.0000   1.0000
     1.0000   1.0000   1.0000   1.0000   1.0000   1.0000   1.0000   1.0000
     1.0000   1.0000   1.0000   1.0000   1.0000   1.0000   0.0000   0.0000
     0.0000   0.0000

          k =-0.5000-0.3136 0.0000 (339276 PWs)   bands (ev):

   -27.0181 -27.0181 -26.8827 -26.8827 -15.1919 -15.1919 -14.3314 -14.3314
   -10.5342 -10.5342 -10.0370 -10.0370  -8.2805  -8.2805  -6.9861  -6.9861
    -5.7719  -5.7719  -5.6915  -5.6915  -4.6852  -4.6852   4.1967   4.1967
     5.1417   5.1417

     occupation numbers 
     1.0000   1.0000   1.0000   1.0000   1.0000   1.0000   1.0000   1.0000
     1.0000   1.0000   1.0000   1.0000   1.0000   1.0000   1.0000   1.0000
     1.0000   1.0000   1.0000   1.0000   1.0000   1.0000   0.0000   0.0000
     0.0000   0.0000

     the Fermi energy is    -0.4824 ev

!    total energy              =    -240.24744188 Ry
     estimated scf accuracy    <          2.1E-09 Ry
     smearing contrib. (-TS)   =      -0.00000000 Ry
     internal energy E=F+TS    =    -240.24744188 Ry

     The total energy is F=E-TS. E is the sum of the following terms:
     one-electron contribution =   -1256.48203930 Ry
     hartree contribution      =     642.01118290 Ry
     xc contribution           =     -51.69325818 Ry
     ewald contribution        =     425.91667271 Ry

     convergence has been achieved in  10 iterations

     negative rho (up, down):  1.335E-06 0.000E+00

     Forces acting on atoms (cartesian axes, Ry/au):

     atom    1 type  1   force =     0.00000000   -0.00004963   -0.00000446
     atom    2 type  1   force =     0.00000000   -0.00004963    0.00000446
     atom    3 type  1   force =     0.00000000    0.00004963   -0.00000446
     atom    4 type  1   force =     0.00000000    0.00004963    0.00000446
     atom    5 type  2   force =     0.00000000   -0.00003130   -0.00002715
     atom    6 type  2   force =     0.00000000   -0.00003130    0.00002715
     atom    7 type  2   force =     0.00000000    0.00003130   -0.00002715
     atom    8 type  2   force =     0.00000000    0.00003130    0.00002715
     The non-local contrib.  to forces
     atom    1 type  1   force =     0.00000000   -0.16227139    0.36789670
     atom    2 type  1   force =    -0.00000000   -0.16227139   -0.36789670
     atom    3 type  1   force =    -0.00000000    0.16227139    0.36789670
     atom    4 type  1   force =     0.00000000    0.16227139   -0.36789670
     atom    5 type  2   force =     0.00000000   -0.97074071    2.28338767
     atom    6 type  2   force =     0.00000000   -0.97074071   -2.28338767
     atom    7 type  2   force =     0.00000000    0.97074071    2.28338767
     atom    8 type  2   force =    -0.00000000    0.97074071   -2.28338767
     The ionic contribution  to forces
     atom    1 type  1   force =     0.00000000    0.91439883    2.68704709
     atom    2 type  1   force =     0.00000000    0.91439883   -2.68704709
     atom    3 type  1   force =    -0.00000000   -0.91439883    2.68704709
     atom    4 type  1   force =    -0.00000000   -0.91439883   -2.68704709
     atom    5 type  2   force =     0.00000000    4.28250416  -44.49509369
     atom    6 type  2   force =    -0.00000000    4.28250416   44.49509369
     atom    7 type  2   force =     0.00000000   -4.28250416  -44.49509369
     atom    8 type  2   force =     0.00000000   -4.28250416   44.49509369
     The local contribution  to forces
     atom    1 type  1   force =    -0.00000000   -0.75314710   -3.05230012
     atom    2 type  1   force =    -0.00000000   -0.75314710    3.05230012
     atom    3 type  1   force =     0.00000000    0.75314710   -3.05230012
     atom    4 type  1   force =     0.00000000    0.75314710    3.05230012
     atom    5 type  2   force =    -0.00000000   -3.31182020   42.21178415
     atom    6 type  2   force =    -0.00000000   -3.31182020  -42.21178415
     atom    7 type  2   force =     0.00000000    3.31182020   42.21178415
     atom    8 type  2   force =     0.00000000    3.31182020  -42.21178415
     The core correction contribution to forces
     atom    1 type  1   force =    -0.00000000    0.00097342   -0.00267342
     atom    2 type  1   force =    -0.00000000    0.00097342    0.00267342
     atom    3 type  1   force =     0.00000000   -0.00097342   -0.00267342
     atom    4 type  1   force =     0.00000000   -0.00097342    0.00267342
     atom    5 type  2   force =     0.00000000    0.00000000    0.00000000
     atom    6 type  2   force =     0.00000000    0.00000000    0.00000000
     atom    7 type  2   force =     0.00000000    0.00000000    0.00000000
     atom    8 type  2   force =     0.00000000    0.00000000    0.00000000
     The Hubbard contrib.    to forces
     atom    1 type  1   force =     0.00000000    0.00000000    0.00000000
     atom    2 type  1   force =     0.00000000    0.00000000    0.00000000
     atom    3 type  1   force =     0.00000000    0.00000000    0.00000000
     atom    4 type  1   force =     0.00000000    0.00000000    0.00000000
     atom    5 type  2   force =     0.00000000    0.00000000    0.00000000
     atom    6 type  2   force =     0.00000000    0.00000000    0.00000000
     atom    7 type  2   force =     0.00000000    0.00000000    0.00000000
     atom    8 type  2   force =     0.00000000    0.00000000    0.00000000
     The SCF correction term to forces
     atom    1 type  1   force =    -0.00000000   -0.00000339    0.00002529
     atom    2 type  1   force =    -0.00000000   -0.00000339   -0.00002529
     atom    3 type  1   force =    -0.00000000    0.00000339    0.00002529
     atom    4 type  1   force =    -0.00000000    0.00000339   -0.00002529
     atom    5 type  2   force =    -0.00000000    0.00002545   -0.00010528
     atom    6 type  2   force =     0.00000000    0.00002545    0.00010528
     atom    7 type  2   force =     0.00000000   -0.00002545   -0.00010528
     atom    8 type  2   force =     0.00000000   -0.00002545    0.00010528

     Total force =     0.000130     Total SCF correction =     0.000223
     SCF correction compared to forces is large: reduce conv_thr to get better values


     Computing stress (Cartesian axis) and pressure


     negative rho (up, down):  1.335E-06 0.000E+00
          total   stress  (Ry/bohr**3)                   (kbar)     P=       -0.05
  -0.00000065   0.00000000   0.00000000           -0.10        0.00        0.00
   0.00000000  -0.00000030   0.00000000            0.00       -0.04        0.00
   0.00000000   0.00000000  -0.00000012            0.00        0.00       -0.02

     kinetic stress (kbar)   9135.56      0.00      0.00
                                0.00   8958.54      0.00
                                0.00      0.00   8301.44

     local   stress (kbar)-161108.15     -0.00      0.00
                               -0.00-162214.32     -0.00
                                0.00     -0.00 155410.91

     nonloc. stress (kbar)   1180.26      0.00      0.00
                                0.00   1137.48      0.00
                                0.00      0.00    963.81

     hartree stress (kbar)  80821.34      0.00      0.00
                                0.00  81109.50      0.00
                                0.00      0.00 -74841.86

     exc-cor stress (kbar)  -2141.77     -0.00     -0.00
                               -0.00  -2137.82      0.00
                               -0.00      0.00  -2131.14

     corecor stress (kbar)    -73.64     -0.00      0.00
                               -0.00    -73.49      0.00
                                0.00      0.00    -72.52

     ewald   stress (kbar)  72186.31      0.00      0.00
                                0.00  73220.06      0.00
                                0.00      0.00 -87630.66

     hubbard stress (kbar)      0.00      0.00      0.00
                                0.00      0.00      0.00
                                0.00      0.00      0.00

     DFT-D   stress (kbar)      0.00      0.00      0.00
                                0.00      0.00      0.00
                                0.00      0.00      0.00

     XDM     stress (kbar)      0.00      0.00      0.00
                                0.00      0.00      0.00
                                0.00      0.00      0.00

     dft-nl  stress (kbar)      0.00      0.00      0.00
                                0.00      0.00      0.00
                                0.00      0.00      0.00

     TS-vdW  stress (kbar)      0.00      0.00      0.00
                                0.00      0.00      0.00
                                0.00      0.00      0.00

     MDB     stress (kbar)      0.00      0.00      0.00
                                0.00      0.00      0.00
                                0.00      0.00      0.00

     3D-RISM stress (kbar)      0.00      0.00      0.00
                                0.00      0.00      0.00
                                0.00      0.00      0.00


     Writing all to output data dir ../tmp/fgz.save/

     init_run     :     60.46s CPU     89.49s WALL (       1 calls)
     electrons    :   2550.72s CPU   3805.86s WALL (       1 calls)
     forces       :     46.06s CPU     83.46s WALL (       1 calls)
     stress       :     40.86s CPU     69.64s WALL (       1 calls)

     Called by init_run:
     wfcinit      :     58.24s CPU     86.99s WALL (       1 calls)
     wfcinit:atom :      0.26s CPU      0.24s WALL (      49 calls)
     wfcinit:wfcr :     56.12s CPU     83.79s WALL (      49 calls)
     potinit      :      0.32s CPU      0.35s WALL (       1 calls)
     hinit0       :      0.86s CPU      0.87s WALL (       1 calls)

     Called by electrons:
     c_bands      :   2435.08s CPU   3590.26s WALL (      10 calls)
     sum_band     :    111.93s CPU    209.80s WALL (      10 calls)
     v_of_rho     :      0.82s CPU      0.83s WALL (      11 calls)
     v_h          :      0.04s CPU      0.05s WALL (      11 calls)
     v_xc         :      0.90s CPU      0.89s WALL (      13 calls)
     newd         :      2.44s CPU      4.18s WALL (      11 calls)
     mix_rho      :      0.25s CPU      0.25s WALL (      10 calls)

     Called by c_bands:
     init_us_2    :      1.78s CPU      2.81s WALL (    1127 calls)
     init_us_2:cp :      1.77s CPU      2.81s WALL (    1127 calls)
     cegterg      :   2350.76s CPU   3458.74s WALL (     490 calls)

     Called by sum_band:
     sum_band:wei :      0.00s CPU      0.00s WALL (      10 calls)
     sum_band:loo :    108.39s CPU    203.33s WALL (      10 calls)
     sum_band:buf :      0.20s CPU      0.55s WALL (     490 calls)
     sum_band:ini :      0.67s CPU      1.08s WALL (     490 calls)
     sum_band:cal :     85.94s CPU    173.62s WALL (     490 calls)
     sum_band:bec :      0.00s CPU      0.01s WALL (     490 calls)
     addusdens    :      2.12s CPU      4.81s WALL (      10 calls)
     addusd:skk   :      0.01s CPU      0.02s WALL (      20 calls)
     addusd:dgemm :      1.14s CPU      3.10s WALL (      20 calls)
     addusd:qvan2 :      0.92s CPU      1.64s WALL (      20 calls)

     Called by *egterg:
     cdiaghg      :    262.95s CPU    127.28s WALL (    2155 calls)
     cegterg:over :    630.45s CPU    933.34s WALL (    1665 calls)
     cegterg:upda :    111.91s CPU    171.38s WALL (    1665 calls)
     cegterg:last :    117.75s CPU    189.79s WALL (    1107 calls)
     h_psi        :    747.16s CPU   1313.22s WALL (    2204 calls)
     s_psi        :     37.46s CPU     67.10s WALL (    2204 calls)
     g_psi        :      1.14s CPU      0.88s WALL (    1665 calls)

     Called by h_psi:
     h_psi:calbec :    411.90s CPU    773.63s WALL (    2204 calls)
     vloc_psi     :    187.52s CPU    196.03s WALL (    2204 calls)
     add_vuspsi   :    146.90s CPU    342.32s WALL (    2204 calls)

     General routines
     calbec       :    562.38s CPU   1054.42s WALL (    2939 calls)
     fft          :      1.17s CPU      1.22s WALL (     146 calls)
     ffts         :      0.05s CPU      0.06s WALL (      10 calls)
     fftw         :    198.84s CPU    208.46s WALL (   84356 calls)

     Parallel routines

     PWSCF        :  45m 1.09s CPU      1h 7m WALL


   This run was terminated on:   5:34:41  20Jan2024            

=------------------------------------------------------------------------------=
   JOB DONE.
=------------------------------------------------------------------------------=
