
     Program PWSCF v.7.1 starts on 20Jan2024 at  9:27:11 

     This program is part of the open-source Quantum ESPRESSO suite
     for quantum simulation of materials; please cite
         "P. Giannozzi et al., J. Phys.:Condens. Matter 21 395502 (2009);
         "P. Giannozzi et al., J. Phys.:Condens. Matter 29 465901 (2017);
         "P. Giannozzi et al., J. Chem. Phys. 152 154105 (2020);
          URL http://www.quantum-espresso.org", 
     in publications or presentations arising from this work. More details at
     http://www.quantum-espresso.org/quote

     Parallel version (MPI), running on    50 processors

     MPI processes distributed on     1 nodes
     336596 MiB available memory on the printing compute node when the environment starts

     Reading input from kpoint.21.in

     Current dimensions of program PWSCF are:
     Max number of different atomic species (ntypx) = 10
     Max number of k-points (npk) =  40000
     Max angular momentum in pseudopotentials (lmaxx) =  4
     Message from routine setup:
     using ibrav=0 with symmetry is DISCOURAGED, use correct ibrav instead

     R & G space division:  proc/nbgrp/npool/nimage =      50
     Subspace diagonalization in iterative solution of the eigenvalue problem:
     a serial algorithm will be used


     Parallelization info
     --------------------
     sticks:   dense  smooth     PW     G-vecs:    dense   smooth      PW
     Min         175     175     46                54253    54253    7342
     Max         176     176     47                54271    54271    7359
     Sum        8763    8763   2315              2713169  2713169  367321

     Using Slab Decomposition



     bravais-lattice index     =            0
     lattice parameter (alat)  =       4.9702  a.u.
     unit-cell volume          =    1084.4437 (a.u.)^3
     number of atoms/cell      =            8
     number of atomic types    =            2
     number of electrons       =        44.00
     number of Kohn-Sham states=           26
     kinetic-energy cutoff     =     700.0000  Ry
     charge density cutoff     =    2800.0000  Ry
     scf convergence threshold =      1.0E-08
     mixing beta               =       0.7000
     number of iterations used =            8  plain     mixing
     Exchange-correlation=  SLA  PW   PBX  PBC
                           (   1   4   3   4   0   0   0)

     celldm(1)=   4.970237  celldm(2)=   0.000000  celldm(3)=   0.000000
     celldm(4)=   0.000000  celldm(5)=   0.000000  celldm(6)=   0.000000

     crystal axes: (cart. coord. in units of alat)
               a(1) = (   1.000000   0.000000   0.000000 )  
               a(2) = (   0.000000   1.594189   0.000000 )  
               a(3) = (   0.000000   0.000000   5.540333 )  

     reciprocal axes: (cart. coord. in units 2 pi/alat)
               b(1) = (  1.000000  0.000000  0.000000 )  
               b(2) = (  0.000000  0.627278  0.000000 )  
               b(3) = (  0.000000  0.000000  0.180495 )  


     PseudoPot. # 1 for C  read from file:
     ../pseudo/c_pbe_v1.2.uspp.F.UPF
     MD5 check sum: d1aef80898a10debaa0f26306b886e00
     Pseudo is Ultrasoft + core correction, Zval =  4.0
     Generated by new atomic code, or converted to UPF format
     Using radial grid of  721 points,  4 beta functions with: 
                l(1) =   0
                l(2) =   0
                l(3) =   1
                l(4) =   1
     Q(r) pseudized with  8 coefficients,  rinner =    1.100   1.100   1.100


     PseudoPot. # 2 for F  read from file:
     ../pseudo/f_pbe_v1.4.uspp.F.UPF
     MD5 check sum: 4c38b6a325caf53ec0e86aed9459de46
     Pseudo is Ultrasoft, Zval =  7.0
     Generated by new atomic code, or converted to UPF format
     Using radial grid of  799 points,  4 beta functions with: 
                l(1) =   0
                l(2) =   0
                l(3) =   1
                l(4) =   1
     Q(r) pseudized with  8 coefficients,  rinner =    0.950   0.950   0.950


     atomic species   valence    mass     pseudopotential
        C              4.00    12.01070     C ( 1.00)
        F              7.00    18.99840     F ( 1.00)

      8 Sym. Ops., with inversion, found ( 4 have fractional translation)


                                    s                        frac. trans.

      isym =  1     identity                                     

 cryst.   s( 1) = (     1          0          0      )
                  (     0          1          0      )
                  (     0          0          1      )

 cart.    s( 1) = (  1.0000000  0.0000000  0.0000000 )
                  (  0.0000000  1.0000000  0.0000000 )
                  (  0.0000000  0.0000000  1.0000000 )


      isym =  2     180 deg rotation - cart. axis [0,0,1]        

 cryst.   s( 2) = (    -1          0          0      )    f =(  0.5000000 )
                  (     0         -1          0      )       (  0.5000000 )
                  (     0          0          1      )       (  0.0000000 )

 cart.    s( 2) = ( -1.0000000  0.0000000  0.0000000 )    f =(  0.5000000 )
                  (  0.0000000 -1.0000000  0.0000000 )       (  0.7970945 )
                  (  0.0000000  0.0000000  1.0000000 )       (  0.0000000 )


      isym =  3     180 deg rotation - cart. axis [0,1,0]        

 cryst.   s( 3) = (    -1          0          0      )    f =(  0.5000000 )
                  (     0          1          0      )       ( -0.5000000 )
                  (     0          0         -1      )       (  0.0000000 )

 cart.    s( 3) = ( -1.0000000  0.0000000  0.0000000 )    f =(  0.5000000 )
                  (  0.0000000  1.0000000  0.0000000 )       ( -0.7970945 )
                  (  0.0000000  0.0000000 -1.0000000 )       (  0.0000000 )


      isym =  4     180 deg rotation - cart. axis [1,0,0]        

 cryst.   s( 4) = (     1          0          0      )
                  (     0         -1          0      )
                  (     0          0         -1      )

 cart.    s( 4) = (  1.0000000  0.0000000  0.0000000 )
                  (  0.0000000 -1.0000000  0.0000000 )
                  (  0.0000000  0.0000000 -1.0000000 )


      isym =  5     inversion                                    

 cryst.   s( 5) = (    -1          0          0      )
                  (     0         -1          0      )
                  (     0          0         -1      )

 cart.    s( 5) = ( -1.0000000  0.0000000  0.0000000 )
                  (  0.0000000 -1.0000000  0.0000000 )
                  (  0.0000000  0.0000000 -1.0000000 )


      isym =  6     inv. 180 deg rotation - cart. axis [0,0,1]   

 cryst.   s( 6) = (     1          0          0      )    f =(  0.5000000 )
                  (     0          1          0      )       ( -0.5000000 )
                  (     0          0         -1      )       (  0.0000000 )

 cart.    s( 6) = (  1.0000000  0.0000000  0.0000000 )    f =(  0.5000000 )
                  (  0.0000000  1.0000000  0.0000000 )       ( -0.7970945 )
                  (  0.0000000  0.0000000 -1.0000000 )       (  0.0000000 )


      isym =  7     inv. 180 deg rotation - cart. axis [0,1,0]   

 cryst.   s( 7) = (     1          0          0      )    f =(  0.5000000 )
                  (     0         -1          0      )       (  0.5000000 )
                  (     0          0          1      )       (  0.0000000 )

 cart.    s( 7) = (  1.0000000  0.0000000  0.0000000 )    f =(  0.5000000 )
                  (  0.0000000 -1.0000000  0.0000000 )       (  0.7970945 )
                  (  0.0000000  0.0000000  1.0000000 )       (  0.0000000 )


      isym =  8     inv. 180 deg rotation - cart. axis [1,0,0]   

 cryst.   s( 8) = (    -1          0          0      )
                  (     0          1          0      )
                  (     0          0          1      )

 cart.    s( 8) = ( -1.0000000  0.0000000  0.0000000 )
                  (  0.0000000  1.0000000  0.0000000 )
                  (  0.0000000  0.0000000  1.0000000 )


   Cartesian axes

     site n.     atom                  positions (alat units)
         1           C   tau(   1) = (   0.5000000   0.2256478   0.1937169  )
         2           C   tau(   2) = (   0.0000000   1.0227422  -0.1937169  )
         3           C   tau(   3) = (   0.0000000   0.5714467   0.1937169  )
         4           C   tau(   4) = (   0.5000000   1.3685411  -0.1937169  )
         5           F   tau(   5) = (   0.5000000  -0.0095812  -0.6719762  )
         6           F   tau(   6) = (   0.0000000   0.7875132   0.6719762  )
         7           F   tau(   7) = (   0.0000000   0.8066757  -0.6719762  )
         8           F   tau(   8) = (   0.5000000   0.0095812   0.6719762  )

   Crystallographic axes

     site n.     atom                  positions (cryst. coord.)
         1           C   tau(   1) = (  0.5000000  0.1415439  0.0349649  )
         2           C   tau(   2) = (  0.0000000  0.6415439 -0.0349649  )
         3           C   tau(   3) = (  0.0000000  0.3584561  0.0349649  )
         4           C   tau(   4) = (  0.5000000  0.8584561 -0.0349649  )
         5           F   tau(   5) = (  0.5000000 -0.0060101 -0.1212881  )
         6           F   tau(   6) = (  0.0000000  0.4939899  0.1212881  )
         7           F   tau(   7) = (  0.0000000  0.5060101 -0.1212881  )
         8           F   tau(   8) = (  0.5000000  0.0060101  0.1212881  )

     number of k points=   121  Marzari-Vanderbilt smearing, width (Ry)=  0.0200
                       cart. coord. in units 2pi/alat
        k(    1) = (   0.0000000   0.0000000   0.0000000), wk =   0.0045351
        k(    2) = (   0.0000000   0.0298704   0.0000000), wk =   0.0090703
        k(    3) = (   0.0000000   0.0597408   0.0000000), wk =   0.0090703
        k(    4) = (   0.0000000   0.0896112   0.0000000), wk =   0.0090703
        k(    5) = (   0.0000000   0.1194816   0.0000000), wk =   0.0090703
        k(    6) = (   0.0000000   0.1493520   0.0000000), wk =   0.0090703
        k(    7) = (   0.0000000   0.1792224   0.0000000), wk =   0.0090703
        k(    8) = (   0.0000000   0.2090927   0.0000000), wk =   0.0090703
        k(    9) = (   0.0000000   0.2389631   0.0000000), wk =   0.0090703
        k(   10) = (   0.0000000   0.2688335   0.0000000), wk =   0.0090703
        k(   11) = (   0.0000000   0.2987039   0.0000000), wk =   0.0090703
        k(   12) = (   0.0476190   0.0000000   0.0000000), wk =   0.0090703
        k(   13) = (   0.0476190   0.0298704   0.0000000), wk =   0.0181406
        k(   14) = (   0.0476190   0.0597408   0.0000000), wk =   0.0181406
        k(   15) = (   0.0476190   0.0896112   0.0000000), wk =   0.0181406
        k(   16) = (   0.0476190   0.1194816   0.0000000), wk =   0.0181406
        k(   17) = (   0.0476190   0.1493520   0.0000000), wk =   0.0181406
        k(   18) = (   0.0476190   0.1792224   0.0000000), wk =   0.0181406
        k(   19) = (   0.0476190   0.2090927   0.0000000), wk =   0.0181406
        k(   20) = (   0.0476190   0.2389631   0.0000000), wk =   0.0181406
        k(   21) = (   0.0476190   0.2688335   0.0000000), wk =   0.0181406
        k(   22) = (   0.0476190   0.2987039   0.0000000), wk =   0.0181406
        k(   23) = (   0.0952381   0.0000000   0.0000000), wk =   0.0090703
        k(   24) = (   0.0952381   0.0298704   0.0000000), wk =   0.0181406
        k(   25) = (   0.0952381   0.0597408   0.0000000), wk =   0.0181406
        k(   26) = (   0.0952381   0.0896112   0.0000000), wk =   0.0181406
        k(   27) = (   0.0952381   0.1194816   0.0000000), wk =   0.0181406
        k(   28) = (   0.0952381   0.1493520   0.0000000), wk =   0.0181406
        k(   29) = (   0.0952381   0.1792224   0.0000000), wk =   0.0181406
        k(   30) = (   0.0952381   0.2090927   0.0000000), wk =   0.0181406
        k(   31) = (   0.0952381   0.2389631   0.0000000), wk =   0.0181406
        k(   32) = (   0.0952381   0.2688335   0.0000000), wk =   0.0181406
        k(   33) = (   0.0952381   0.2987039   0.0000000), wk =   0.0181406
        k(   34) = (   0.1428571   0.0000000   0.0000000), wk =   0.0090703
        k(   35) = (   0.1428571   0.0298704   0.0000000), wk =   0.0181406
        k(   36) = (   0.1428571   0.0597408   0.0000000), wk =   0.0181406
        k(   37) = (   0.1428571   0.0896112   0.0000000), wk =   0.0181406
        k(   38) = (   0.1428571   0.1194816   0.0000000), wk =   0.0181406
        k(   39) = (   0.1428571   0.1493520   0.0000000), wk =   0.0181406
        k(   40) = (   0.1428571   0.1792224   0.0000000), wk =   0.0181406
        k(   41) = (   0.1428571   0.2090927   0.0000000), wk =   0.0181406
        k(   42) = (   0.1428571   0.2389631   0.0000000), wk =   0.0181406
        k(   43) = (   0.1428571   0.2688335   0.0000000), wk =   0.0181406
        k(   44) = (   0.1428571   0.2987039   0.0000000), wk =   0.0181406
        k(   45) = (   0.1904762   0.0000000   0.0000000), wk =   0.0090703
        k(   46) = (   0.1904762   0.0298704   0.0000000), wk =   0.0181406
        k(   47) = (   0.1904762   0.0597408   0.0000000), wk =   0.0181406
        k(   48) = (   0.1904762   0.0896112   0.0000000), wk =   0.0181406
        k(   49) = (   0.1904762   0.1194816   0.0000000), wk =   0.0181406
        k(   50) = (   0.1904762   0.1493520   0.0000000), wk =   0.0181406
        k(   51) = (   0.1904762   0.1792224   0.0000000), wk =   0.0181406
        k(   52) = (   0.1904762   0.2090927   0.0000000), wk =   0.0181406
        k(   53) = (   0.1904762   0.2389631   0.0000000), wk =   0.0181406
        k(   54) = (   0.1904762   0.2688335   0.0000000), wk =   0.0181406
        k(   55) = (   0.1904762   0.2987039   0.0000000), wk =   0.0181406
        k(   56) = (   0.2380952   0.0000000   0.0000000), wk =   0.0090703
        k(   57) = (   0.2380952   0.0298704   0.0000000), wk =   0.0181406
        k(   58) = (   0.2380952   0.0597408   0.0000000), wk =   0.0181406
        k(   59) = (   0.2380952   0.0896112   0.0000000), wk =   0.0181406
        k(   60) = (   0.2380952   0.1194816   0.0000000), wk =   0.0181406
        k(   61) = (   0.2380952   0.1493520   0.0000000), wk =   0.0181406
        k(   62) = (   0.2380952   0.1792224   0.0000000), wk =   0.0181406
        k(   63) = (   0.2380952   0.2090927   0.0000000), wk =   0.0181406
        k(   64) = (   0.2380952   0.2389631   0.0000000), wk =   0.0181406
        k(   65) = (   0.2380952   0.2688335   0.0000000), wk =   0.0181406
        k(   66) = (   0.2380952   0.2987039   0.0000000), wk =   0.0181406
        k(   67) = (   0.2857143   0.0000000   0.0000000), wk =   0.0090703
        k(   68) = (   0.2857143   0.0298704   0.0000000), wk =   0.0181406
        k(   69) = (   0.2857143   0.0597408   0.0000000), wk =   0.0181406
        k(   70) = (   0.2857143   0.0896112   0.0000000), wk =   0.0181406
        k(   71) = (   0.2857143   0.1194816   0.0000000), wk =   0.0181406
        k(   72) = (   0.2857143   0.1493520   0.0000000), wk =   0.0181406
        k(   73) = (   0.2857143   0.1792224   0.0000000), wk =   0.0181406
        k(   74) = (   0.2857143   0.2090927   0.0000000), wk =   0.0181406
        k(   75) = (   0.2857143   0.2389631   0.0000000), wk =   0.0181406
        k(   76) = (   0.2857143   0.2688335   0.0000000), wk =   0.0181406
        k(   77) = (   0.2857143   0.2987039   0.0000000), wk =   0.0181406
        k(   78) = (   0.3333333   0.0000000   0.0000000), wk =   0.0090703
        k(   79) = (   0.3333333   0.0298704   0.0000000), wk =   0.0181406
        k(   80) = (   0.3333333   0.0597408   0.0000000), wk =   0.0181406
        k(   81) = (   0.3333333   0.0896112   0.0000000), wk =   0.0181406
        k(   82) = (   0.3333333   0.1194816   0.0000000), wk =   0.0181406
        k(   83) = (   0.3333333   0.1493520   0.0000000), wk =   0.0181406
        k(   84) = (   0.3333333   0.1792224   0.0000000), wk =   0.0181406
        k(   85) = (   0.3333333   0.2090927   0.0000000), wk =   0.0181406
        k(   86) = (   0.3333333   0.2389631   0.0000000), wk =   0.0181406
        k(   87) = (   0.3333333   0.2688335   0.0000000), wk =   0.0181406
        k(   88) = (   0.3333333   0.2987039   0.0000000), wk =   0.0181406
        k(   89) = (   0.3809524   0.0000000   0.0000000), wk =   0.0090703
        k(   90) = (   0.3809524   0.0298704   0.0000000), wk =   0.0181406
        k(   91) = (   0.3809524   0.0597408   0.0000000), wk =   0.0181406
        k(   92) = (   0.3809524   0.0896112   0.0000000), wk =   0.0181406
        k(   93) = (   0.3809524   0.1194816   0.0000000), wk =   0.0181406
        k(   94) = (   0.3809524   0.1493520   0.0000000), wk =   0.0181406
        k(   95) = (   0.3809524   0.1792224   0.0000000), wk =   0.0181406
        k(   96) = (   0.3809524   0.2090927   0.0000000), wk =   0.0181406
        k(   97) = (   0.3809524   0.2389631   0.0000000), wk =   0.0181406
        k(   98) = (   0.3809524   0.2688335   0.0000000), wk =   0.0181406
        k(   99) = (   0.3809524   0.2987039   0.0000000), wk =   0.0181406
        k(  100) = (   0.4285714   0.0000000   0.0000000), wk =   0.0090703
        k(  101) = (   0.4285714   0.0298704   0.0000000), wk =   0.0181406
        k(  102) = (   0.4285714   0.0597408   0.0000000), wk =   0.0181406
        k(  103) = (   0.4285714   0.0896112   0.0000000), wk =   0.0181406
        k(  104) = (   0.4285714   0.1194816   0.0000000), wk =   0.0181406
        k(  105) = (   0.4285714   0.1493520   0.0000000), wk =   0.0181406
        k(  106) = (   0.4285714   0.1792224   0.0000000), wk =   0.0181406
        k(  107) = (   0.4285714   0.2090927   0.0000000), wk =   0.0181406
        k(  108) = (   0.4285714   0.2389631   0.0000000), wk =   0.0181406
        k(  109) = (   0.4285714   0.2688335   0.0000000), wk =   0.0181406
        k(  110) = (   0.4285714   0.2987039   0.0000000), wk =   0.0181406
        k(  111) = (   0.4761905   0.0000000   0.0000000), wk =   0.0090703
        k(  112) = (   0.4761905   0.0298704   0.0000000), wk =   0.0181406
        k(  113) = (   0.4761905   0.0597408   0.0000000), wk =   0.0181406
        k(  114) = (   0.4761905   0.0896112   0.0000000), wk =   0.0181406
        k(  115) = (   0.4761905   0.1194816   0.0000000), wk =   0.0181406
        k(  116) = (   0.4761905   0.1493520   0.0000000), wk =   0.0181406
        k(  117) = (   0.4761905   0.1792224   0.0000000), wk =   0.0181406
        k(  118) = (   0.4761905   0.2090927   0.0000000), wk =   0.0181406
        k(  119) = (   0.4761905   0.2389631   0.0000000), wk =   0.0181406
        k(  120) = (   0.4761905   0.2688335   0.0000000), wk =   0.0181406
        k(  121) = (   0.4761905   0.2987039   0.0000000), wk =   0.0181406

                       cryst. coord.
        k(    1) = (   0.0000000   0.0000000   0.0000000), wk =   0.0045351
        k(    2) = (   0.0000000   0.0476190   0.0000000), wk =   0.0090703
        k(    3) = (   0.0000000   0.0952381   0.0000000), wk =   0.0090703
        k(    4) = (   0.0000000   0.1428571   0.0000000), wk =   0.0090703
        k(    5) = (   0.0000000   0.1904762   0.0000000), wk =   0.0090703
        k(    6) = (   0.0000000   0.2380952   0.0000000), wk =   0.0090703
        k(    7) = (   0.0000000   0.2857143   0.0000000), wk =   0.0090703
        k(    8) = (   0.0000000   0.3333333   0.0000000), wk =   0.0090703
        k(    9) = (   0.0000000   0.3809524   0.0000000), wk =   0.0090703
        k(   10) = (   0.0000000   0.4285714   0.0000000), wk =   0.0090703
        k(   11) = (   0.0000000   0.4761905   0.0000000), wk =   0.0090703
        k(   12) = (   0.0476190   0.0000000   0.0000000), wk =   0.0090703
        k(   13) = (   0.0476190   0.0476190   0.0000000), wk =   0.0181406
        k(   14) = (   0.0476190   0.0952381   0.0000000), wk =   0.0181406
        k(   15) = (   0.0476190   0.1428571   0.0000000), wk =   0.0181406
        k(   16) = (   0.0476190   0.1904762   0.0000000), wk =   0.0181406
        k(   17) = (   0.0476190   0.2380952   0.0000000), wk =   0.0181406
        k(   18) = (   0.0476190   0.2857143   0.0000000), wk =   0.0181406
        k(   19) = (   0.0476190   0.3333333   0.0000000), wk =   0.0181406
        k(   20) = (   0.0476190   0.3809524   0.0000000), wk =   0.0181406
        k(   21) = (   0.0476190   0.4285714   0.0000000), wk =   0.0181406
        k(   22) = (   0.0476190   0.4761905   0.0000000), wk =   0.0181406
        k(   23) = (   0.0952381   0.0000000   0.0000000), wk =   0.0090703
        k(   24) = (   0.0952381   0.0476190   0.0000000), wk =   0.0181406
        k(   25) = (   0.0952381   0.0952381   0.0000000), wk =   0.0181406
        k(   26) = (   0.0952381   0.1428571   0.0000000), wk =   0.0181406
        k(   27) = (   0.0952381   0.1904762   0.0000000), wk =   0.0181406
        k(   28) = (   0.0952381   0.2380952   0.0000000), wk =   0.0181406
        k(   29) = (   0.0952381   0.2857143   0.0000000), wk =   0.0181406
        k(   30) = (   0.0952381   0.3333333   0.0000000), wk =   0.0181406
        k(   31) = (   0.0952381   0.3809524   0.0000000), wk =   0.0181406
        k(   32) = (   0.0952381   0.4285714   0.0000000), wk =   0.0181406
        k(   33) = (   0.0952381   0.4761905   0.0000000), wk =   0.0181406
        k(   34) = (   0.1428571   0.0000000   0.0000000), wk =   0.0090703
        k(   35) = (   0.1428571   0.0476190   0.0000000), wk =   0.0181406
        k(   36) = (   0.1428571   0.0952381   0.0000000), wk =   0.0181406
        k(   37) = (   0.1428571   0.1428571   0.0000000), wk =   0.0181406
        k(   38) = (   0.1428571   0.1904762   0.0000000), wk =   0.0181406
        k(   39) = (   0.1428571   0.2380952   0.0000000), wk =   0.0181406
        k(   40) = (   0.1428571   0.2857143   0.0000000), wk =   0.0181406
        k(   41) = (   0.1428571   0.3333333   0.0000000), wk =   0.0181406
        k(   42) = (   0.1428571   0.3809524   0.0000000), wk =   0.0181406
        k(   43) = (   0.1428571   0.4285714   0.0000000), wk =   0.0181406
        k(   44) = (   0.1428571   0.4761905   0.0000000), wk =   0.0181406
        k(   45) = (   0.1904762   0.0000000   0.0000000), wk =   0.0090703
        k(   46) = (   0.1904762   0.0476190   0.0000000), wk =   0.0181406
        k(   47) = (   0.1904762   0.0952381   0.0000000), wk =   0.0181406
        k(   48) = (   0.1904762   0.1428571   0.0000000), wk =   0.0181406
        k(   49) = (   0.1904762   0.1904762   0.0000000), wk =   0.0181406
        k(   50) = (   0.1904762   0.2380952   0.0000000), wk =   0.0181406
        k(   51) = (   0.1904762   0.2857143   0.0000000), wk =   0.0181406
        k(   52) = (   0.1904762   0.3333333   0.0000000), wk =   0.0181406
        k(   53) = (   0.1904762   0.3809524   0.0000000), wk =   0.0181406
        k(   54) = (   0.1904762   0.4285714   0.0000000), wk =   0.0181406
        k(   55) = (   0.1904762   0.4761905   0.0000000), wk =   0.0181406
        k(   56) = (   0.2380952   0.0000000   0.0000000), wk =   0.0090703
        k(   57) = (   0.2380952   0.0476190   0.0000000), wk =   0.0181406
        k(   58) = (   0.2380952   0.0952381   0.0000000), wk =   0.0181406
        k(   59) = (   0.2380952   0.1428571   0.0000000), wk =   0.0181406
        k(   60) = (   0.2380952   0.1904762   0.0000000), wk =   0.0181406
        k(   61) = (   0.2380952   0.2380952   0.0000000), wk =   0.0181406
        k(   62) = (   0.2380952   0.2857143   0.0000000), wk =   0.0181406
        k(   63) = (   0.2380952   0.3333333   0.0000000), wk =   0.0181406
        k(   64) = (   0.2380952   0.3809524   0.0000000), wk =   0.0181406
        k(   65) = (   0.2380952   0.4285714   0.0000000), wk =   0.0181406
        k(   66) = (   0.2380952   0.4761905   0.0000000), wk =   0.0181406
        k(   67) = (   0.2857143   0.0000000   0.0000000), wk =   0.0090703
        k(   68) = (   0.2857143   0.0476190   0.0000000), wk =   0.0181406
        k(   69) = (   0.2857143   0.0952381   0.0000000), wk =   0.0181406
        k(   70) = (   0.2857143   0.1428571   0.0000000), wk =   0.0181406
        k(   71) = (   0.2857143   0.1904762   0.0000000), wk =   0.0181406
        k(   72) = (   0.2857143   0.2380952   0.0000000), wk =   0.0181406
        k(   73) = (   0.2857143   0.2857143   0.0000000), wk =   0.0181406
        k(   74) = (   0.2857143   0.3333333   0.0000000), wk =   0.0181406
        k(   75) = (   0.2857143   0.3809524   0.0000000), wk =   0.0181406
        k(   76) = (   0.2857143   0.4285714   0.0000000), wk =   0.0181406
        k(   77) = (   0.2857143   0.4761905   0.0000000), wk =   0.0181406
        k(   78) = (   0.3333333   0.0000000   0.0000000), wk =   0.0090703
        k(   79) = (   0.3333333   0.0476190   0.0000000), wk =   0.0181406
        k(   80) = (   0.3333333   0.0952381   0.0000000), wk =   0.0181406
        k(   81) = (   0.3333333   0.1428571   0.0000000), wk =   0.0181406
        k(   82) = (   0.3333333   0.1904762   0.0000000), wk =   0.0181406
        k(   83) = (   0.3333333   0.2380952   0.0000000), wk =   0.0181406
        k(   84) = (   0.3333333   0.2857143   0.0000000), wk =   0.0181406
        k(   85) = (   0.3333333   0.3333333   0.0000000), wk =   0.0181406
        k(   86) = (   0.3333333   0.3809524   0.0000000), wk =   0.0181406
        k(   87) = (   0.3333333   0.4285714   0.0000000), wk =   0.0181406
        k(   88) = (   0.3333333   0.4761905   0.0000000), wk =   0.0181406
        k(   89) = (   0.3809524   0.0000000   0.0000000), wk =   0.0090703
        k(   90) = (   0.3809524   0.0476190   0.0000000), wk =   0.0181406
        k(   91) = (   0.3809524   0.0952381   0.0000000), wk =   0.0181406
        k(   92) = (   0.3809524   0.1428571   0.0000000), wk =   0.0181406
        k(   93) = (   0.3809524   0.1904762   0.0000000), wk =   0.0181406
        k(   94) = (   0.3809524   0.2380952   0.0000000), wk =   0.0181406
        k(   95) = (   0.3809524   0.2857143   0.0000000), wk =   0.0181406
        k(   96) = (   0.3809524   0.3333333   0.0000000), wk =   0.0181406
        k(   97) = (   0.3809524   0.3809524   0.0000000), wk =   0.0181406
        k(   98) = (   0.3809524   0.4285714   0.0000000), wk =   0.0181406
        k(   99) = (   0.3809524   0.4761905   0.0000000), wk =   0.0181406
        k(  100) = (   0.4285714   0.0000000   0.0000000), wk =   0.0090703
        k(  101) = (   0.4285714   0.0476190   0.0000000), wk =   0.0181406
        k(  102) = (   0.4285714   0.0952381   0.0000000), wk =   0.0181406
        k(  103) = (   0.4285714   0.1428571   0.0000000), wk =   0.0181406
        k(  104) = (   0.4285714   0.1904762   0.0000000), wk =   0.0181406
        k(  105) = (   0.4285714   0.2380952   0.0000000), wk =   0.0181406
        k(  106) = (   0.4285714   0.2857143   0.0000000), wk =   0.0181406
        k(  107) = (   0.4285714   0.3333333   0.0000000), wk =   0.0181406
        k(  108) = (   0.4285714   0.3809524   0.0000000), wk =   0.0181406
        k(  109) = (   0.4285714   0.4285714   0.0000000), wk =   0.0181406
        k(  110) = (   0.4285714   0.4761905   0.0000000), wk =   0.0181406
        k(  111) = (   0.4761905   0.0000000   0.0000000), wk =   0.0090703
        k(  112) = (   0.4761905   0.0476190   0.0000000), wk =   0.0181406
        k(  113) = (   0.4761905   0.0952381   0.0000000), wk =   0.0181406
        k(  114) = (   0.4761905   0.1428571   0.0000000), wk =   0.0181406
        k(  115) = (   0.4761905   0.1904762   0.0000000), wk =   0.0181406
        k(  116) = (   0.4761905   0.2380952   0.0000000), wk =   0.0181406
        k(  117) = (   0.4761905   0.2857143   0.0000000), wk =   0.0181406
        k(  118) = (   0.4761905   0.3333333   0.0000000), wk =   0.0181406
        k(  119) = (   0.4761905   0.3809524   0.0000000), wk =   0.0181406
        k(  120) = (   0.4761905   0.4285714   0.0000000), wk =   0.0181406
        k(  121) = (   0.4761905   0.4761905   0.0000000), wk =   0.0181406

     Dense  grid:  2713169 G-vectors     FFT dimensions: (  90, 144, 480)

     Dynamical RAM for                 wfc:       2.69 MB

     Dynamical RAM for     wfc (w. buffer):     328.30 MB

     Dynamical RAM for           str. fact:       1.66 MB

     Dynamical RAM for           local pot:       0.00 MB

     Dynamical RAM for          nlocal pot:       6.62 MB

     Dynamical RAM for                qrad:       2.42 MB

     Dynamical RAM for          rho,v,vnew:       5.45 MB

     Dynamical RAM for               rhoin:       1.82 MB

     Dynamical RAM for            rho*nmix:      13.25 MB

     Dynamical RAM for           G-vectors:       3.52 MB

     Dynamical RAM for          h,s,v(r/c):       0.12 MB

     Dynamical RAM for          <psi|beta>:       0.03 MB

     Dynamical RAM for                 psi:       5.38 MB

     Dynamical RAM for                hpsi:       5.38 MB

     Dynamical RAM for                spsi:       5.38 MB

     Dynamical RAM for      wfcinit/wfcrot:       6.65 MB

     Dynamical RAM for           addusdens:      38.92 MB

     Dynamical RAM for          addusforce:      44.30 MB

     Dynamical RAM for         addusstress:      41.40 MB

     Estimated static dynamical RAM per process >     357.22 MB

     Estimated max dynamical RAM per process >     414.77 MB

     Estimated total dynamical RAM >      20.25 GB

     Initial potential from superposition of free atoms

     starting charge      43.9998, renormalised to      44.0000

     negative rho (up, down):  6.060E-03 0.000E+00
     Starting wfcs are   32 randomized atomic wfcs

     total cpu time spent up to now is      216.4 secs

     Self-consistent Calculation

     iteration #  1     ecut=   700.00 Ry     beta= 0.70
     Davidson diagonalization with overlap

---- Real-time Memory Report at c_bands before calling an iterative solver
           403 MiB given to the printing process from OS
             0 MiB allocation reported by mallinfo(arena+hblkhd)
        317840 MiB available memory on the node where the printing process lives
------------------
     ethr =  1.00E-02,  avg # of iterations =  4.1

     negative rho (up, down):  1.630E-03 0.000E+00

     total cpu time spent up to now is     1283.4 secs

     total energy              =    -240.10940065 Ry
     estimated scf accuracy    <       0.44473324 Ry

     iteration #  2     ecut=   700.00 Ry     beta= 0.70
     Davidson diagonalization with overlap

---- Real-time Memory Report at c_bands before calling an iterative solver
           446 MiB given to the printing process from OS
             0 MiB allocation reported by mallinfo(arena+hblkhd)
        315521 MiB available memory on the node where the printing process lives
------------------
     ethr =  1.01E-03,  avg # of iterations =  3.8

     negative rho (up, down):  1.010E-03 0.000E+00

     total cpu time spent up to now is     2295.4 secs

     total energy              =    -240.13110361 Ry
     estimated scf accuracy    <       0.43790321 Ry

     iteration #  3     ecut=   700.00 Ry     beta= 0.70
     Davidson diagonalization with overlap

---- Real-time Memory Report at c_bands before calling an iterative solver
           451 MiB given to the printing process from OS
             0 MiB allocation reported by mallinfo(arena+hblkhd)
        315383 MiB available memory on the node where the printing process lives
------------------
     ethr =  9.95E-04,  avg # of iterations =  2.3

     negative rho (up, down):  1.838E-04 0.000E+00

     total cpu time spent up to now is     3036.8 secs

     total energy              =    -240.24483646 Ry
     estimated scf accuracy    <       0.02067239 Ry

     iteration #  4     ecut=   700.00 Ry     beta= 0.70
     Davidson diagonalization with overlap

---- Real-time Memory Report at c_bands before calling an iterative solver
           453 MiB given to the printing process from OS
             0 MiB allocation reported by mallinfo(arena+hblkhd)
        315294 MiB available memory on the node where the printing process lives
------------------
     ethr =  4.70E-05,  avg # of iterations =  4.8

     negative rho (up, down):  3.253E-05 0.000E+00

     total cpu time spent up to now is     4178.1 secs

     total energy              =    -240.24708121 Ry
     estimated scf accuracy    <       0.00167892 Ry

     iteration #  5     ecut=   700.00 Ry     beta= 0.70
     Davidson diagonalization with overlap

---- Real-time Memory Report at c_bands before calling an iterative solver
           454 MiB given to the printing process from OS
             0 MiB allocation reported by mallinfo(arena+hblkhd)
        315209 MiB available memory on the node where the printing process lives
------------------
     c_bands:  1 eigenvalues not converged
     c_bands:  1 eigenvalues not converged
     ethr =  3.82E-06,  avg # of iterations =  6.1

     negative rho (up, down):  1.241E-06 0.000E+00

     total cpu time spent up to now is     5582.8 secs

     total energy              =    -240.24743020 Ry
     estimated scf accuracy    <       0.00002156 Ry

     iteration #  6     ecut=   700.00 Ry     beta= 0.70
     Davidson diagonalization with overlap

---- Real-time Memory Report at c_bands before calling an iterative solver
           456 MiB given to the printing process from OS
             0 MiB allocation reported by mallinfo(arena+hblkhd)
        315131 MiB available memory on the node where the printing process lives
------------------
     ethr =  4.90E-08,  avg # of iterations =  4.2

     negative rho (up, down):  1.331E-06 0.000E+00

     total cpu time spent up to now is     6694.6 secs

     total energy              =    -240.24744032 Ry
     estimated scf accuracy    <       0.00001912 Ry

     iteration #  7     ecut=   700.00 Ry     beta= 0.70
     Davidson diagonalization with overlap

---- Real-time Memory Report at c_bands before calling an iterative solver
           458 MiB given to the printing process from OS
             0 MiB allocation reported by mallinfo(arena+hblkhd)
        315035 MiB available memory on the node where the printing process lives
------------------
     ethr =  4.35E-08,  avg # of iterations =  1.9

     negative rho (up, down):  1.348E-06 0.000E+00

     total cpu time spent up to now is     7343.9 secs

     total energy              =    -240.24744132 Ry
     estimated scf accuracy    <       0.00000163 Ry

     iteration #  8     ecut=   700.00 Ry     beta= 0.70
     Davidson diagonalization with overlap

---- Real-time Memory Report at c_bands before calling an iterative solver
           460 MiB given to the printing process from OS
             0 MiB allocation reported by mallinfo(arena+hblkhd)
        314953 MiB available memory on the node where the printing process lives
------------------
     ethr =  3.71E-09,  avg # of iterations =  3.2

     negative rho (up, down):  1.353E-06 0.000E+00

     total cpu time spent up to now is     8268.4 secs

     total energy              =    -240.24744200 Ry
     estimated scf accuracy    <       0.00000053 Ry

     iteration #  9     ecut=   700.00 Ry     beta= 0.70
     Davidson diagonalization with overlap

---- Real-time Memory Report at c_bands before calling an iterative solver
           461 MiB given to the printing process from OS
             0 MiB allocation reported by mallinfo(arena+hblkhd)
        314878 MiB available memory on the node where the printing process lives
------------------
     ethr =  1.21E-09,  avg # of iterations =  2.1

     negative rho (up, down):  1.339E-06 0.000E+00

     total cpu time spent up to now is     8972.6 secs

     total energy              =    -240.24744207 Ry
     estimated scf accuracy    <       0.00000001 Ry

     iteration # 10     ecut=   700.00 Ry     beta= 0.70
     Davidson diagonalization with overlap

---- Real-time Memory Report at c_bands before calling an iterative solver
           463 MiB given to the printing process from OS
             0 MiB allocation reported by mallinfo(arena+hblkhd)
        314791 MiB available memory on the node where the printing process lives
------------------
     ethr =  2.83E-11,  avg # of iterations =  3.7

     negative rho (up, down):  1.335E-06 0.000E+00

     total cpu time spent up to now is     9979.8 secs

     End of self-consistent calculation

          k = 0.0000 0.0000 0.0000 (339089 PWs)   bands (ev):

   -28.1834 -27.9022 -26.6494 -26.5318 -18.8098 -15.5402 -13.5843 -11.1232
   -10.3489  -9.9809  -8.6995  -8.2805  -7.6842  -7.5566  -7.3229  -5.4480
    -5.3045  -5.2488  -4.5965  -4.2727  -4.0437  -2.7239   0.8195   3.2719
     3.3854   4.4165

     occupation numbers 
     1.0000   1.0000   1.0000   1.0000   1.0000   1.0000   1.0000   1.0000
     1.0000   1.0000   1.0000   1.0000   1.0000   1.0000   1.0000   1.0000
     1.0000   1.0000   1.0000   1.0000   1.0000   1.0000   0.0000   0.0000
     0.0000   0.0000

          k = 0.0000 0.0299 0.0000 (339129 PWs)   bands (ev):

   -28.1778 -27.8981 -26.6562 -26.5382 -18.7986 -15.5845 -13.5471 -11.1156
   -10.3276  -9.9879  -8.6905  -8.2828  -7.7024  -7.5382  -7.3254  -5.4571
    -5.3110  -5.2743  -4.6080  -4.2650  -4.0363  -2.7338   0.8462   3.2766
     3.3846   4.4506

     occupation numbers 
     1.0000   1.0000   1.0000   1.0000   1.0000   1.0000   1.0000   1.0000
     1.0000   1.0000   1.0000   1.0000   1.0000   1.0000   1.0000   1.0000
     1.0000   1.0000   1.0000   1.0000   1.0000   1.0000   0.0000   0.0000
     0.0000   0.0000

          k = 0.0000 0.0597 0.0000 (339137 PWs)   bands (ev):

   -28.1614 -27.8861 -26.6759 -26.5568 -18.7651 -15.7073 -13.4447 -11.0952
   -10.2651 -10.0067  -8.6634  -8.2900  -7.7536  -7.4864  -7.3334  -5.4830
    -5.3450  -5.3303  -4.6408  -4.2474  -4.0145  -2.7626   0.9247   3.2907
     3.3816   4.5521

     occupation numbers 
     1.0000   1.0000   1.0000   1.0000   1.0000   1.0000   1.0000   1.0000
     1.0000   1.0000   1.0000   1.0000   1.0000   1.0000   1.0000   1.0000
     1.0000   1.0000   1.0000   1.0000   1.0000   1.0000   0.0000   0.0000
     0.0000   0.0000

          k = 0.0000 0.0896 0.0000 (339035 PWs)   bands (ev):

   -28.1344 -27.8670 -26.7073 -26.5869 -18.7095 -15.8872 -13.2962 -11.0696
   -10.1661 -10.0293  -8.6188  -8.3035  -7.8349  -7.4048  -7.3484  -5.5226
    -5.4484  -5.3607  -4.6894  -4.2317  -3.9794  -2.8085   1.0506   3.3142
     3.3748   4.7169

     occupation numbers 
     1.0000   1.0000   1.0000   1.0000   1.0000   1.0000   1.0000   1.0000
     1.0000   1.0000   1.0000   1.0000   1.0000   1.0000   1.0000   1.0000
     1.0000   1.0000   1.0000   1.0000   1.0000   1.0000   0.0000   0.0000
     0.0000   0.0000

          k = 0.0000 0.1195 0.0000 (339075 PWs)   bands (ev):

   -28.0978 -27.8420 -26.7483 -26.6271 -18.6320 -16.1030 -13.1191 -11.0524
   -10.0420 -10.0371  -8.5575  -8.3253  -7.9448  -7.3727  -7.2960  -5.5711
    -5.5705  -5.4004  -4.7460  -4.2295  -3.9322  -2.8690   1.2173   3.3468
     3.3617   4.9391

     occupation numbers 
     1.0000   1.0000   1.0000   1.0000   1.0000   1.0000   1.0000   1.0000
     1.0000   1.0000   1.0000   1.0000   1.0000   1.0000   1.0000   1.0000
     1.0000   1.0000   1.0000   1.0000   1.0000   1.0000   0.0000   0.0000
     0.0000   0.0000

          k = 0.0000 0.1494 0.0000 (339143 PWs)   bands (ev):

   -28.0527 -27.8133 -26.7958 -26.6755 -18.5331 -16.3389 -12.9253 -11.0618
   -10.0265  -9.8864  -8.4807  -8.3581  -8.0806  -7.4091  -7.1647  -5.7022
    -5.6203  -5.4468  -4.8012  -4.2492  -3.8744  -2.9410   1.4173   3.3380
     3.3884   4.6817

     occupation numbers 
     1.0000   1.0000   1.0000   1.0000   1.0000   1.0000   1.0000   1.0000
     1.0000   1.0000   1.0000   1.0000   1.0000   1.0000   1.0000   1.0000
     1.0000   1.0000   1.0000   1.0000   1.0000   1.0000   0.0000   0.0000
     0.0000   0.0000

          k = 0.0000 0.1792 0.0000 (339051 PWs)   bands (ev):

   -28.0009 -27.7838 -26.8455 -26.7294 -18.4133 -16.5839 -12.7217 -11.1130
    -9.9680  -9.7231  -8.4048  -8.3901  -8.2381  -7.4603  -7.0172  -5.8338
    -5.6653  -5.4973  -4.8453  -4.2947  -3.8077  -3.0218   1.6423   3.2982
     3.4391   4.5429

     occupation numbers 
     1.0000   1.0000   1.0000   1.0000   1.0000   1.0000   1.0000   1.0000
     1.0000   1.0000   1.0000   1.0000   1.0000   1.0000   1.0000   1.0000
     1.0000   1.0000   1.0000   1.0000   1.0000   1.0000   0.0000   0.0000
     0.0000   0.0000

          k = 0.0000 0.2091 0.0000 (338975 PWs)   bands (ev):

   -27.9447 -27.7579 -26.8919 -26.7860 -18.2733 -16.8306 -12.5130 -11.2094
    -9.8637  -9.5572  -8.4677  -8.4105  -8.2876  -7.5279  -6.8618  -5.9606
    -5.6995  -5.5492  -4.8691  -4.3656  -3.7334  -3.1088   1.8841   3.2349
     3.4991   4.3676

     occupation numbers 
     1.0000   1.0000   1.0000   1.0000   1.0000   1.0000   1.0000   1.0000
     1.0000   1.0000   1.0000   1.0000   1.0000   1.0000   1.0000   1.0000
     1.0000   1.0000   1.0000   1.0000   1.0000   1.0000   0.0000   0.0000
     0.0000   0.0000

          k = 0.0000 0.2390 0.0000 (338946 PWs)   bands (ev):

   -27.8873 -27.7408 -26.9286 -26.8412 -18.1140 -17.0733 -12.3023 -11.3441
    -9.7228  -9.4026  -8.5859  -8.5475  -8.1761  -7.6122  -6.7077  -6.0807
    -5.7190  -5.5994  -4.8650  -4.4576  -3.6527  -3.1996   2.1340   3.1397
     3.5695   4.1851

     occupation numbers 
     1.0000   1.0000   1.0000   1.0000   1.0000   1.0000   1.0000   1.0000
     1.0000   1.0000   1.0000   1.0000   1.0000   1.0000   1.0000   1.0000
     1.0000   1.0000   1.0000   1.0000   1.0000   1.0000   0.0000   0.0000
     0.0000   0.0000

          k = 0.0000 0.2688 0.0000 (338944 PWs)   bands (ev):

   -27.8327 -27.7382 -26.9491 -26.8904 -17.9364 -17.3080 -12.0928 -11.5075
    -9.5598  -9.2879  -8.7360  -8.6413  -8.0585  -7.7113  -6.5627  -6.1956
    -5.7221  -5.6450  -4.8283  -4.5621  -3.5671  -3.2925   2.3823   3.0053
     3.6522   4.0159

     occupation numbers 
     1.0000   1.0000   1.0000   1.0000   1.0000   1.0000   1.0000   1.0000
     1.0000   1.0000   1.0000   1.0000   1.0000   1.0000   1.0000   1.0000
     1.0000   1.0000   1.0000   1.0000   1.0000   1.0000   0.0000   0.0000
     0.0000   0.0000

          k = 0.0000 0.2987 0.0000 (338916 PWs)   bands (ev):

   -27.7863 -27.7534 -26.9490 -26.9282 -17.7418 -17.5317 -11.8876 -11.6908
    -9.3962  -9.2793  -8.7936  -8.7370  -7.9390  -7.8217  -6.4306  -6.3100
    -5.7093  -5.6826  -4.7601  -4.6674  -3.4776  -3.3856   2.6182   2.8295
     3.7510   3.8708

     occupation numbers 
     1.0000   1.0000   1.0000   1.0000   1.0000   1.0000   1.0000   1.0000
     1.0000   1.0000   1.0000   1.0000   1.0000   1.0000   1.0000   1.0000
     1.0000   1.0000   1.0000   1.0000   1.0000   1.0000   0.0000   0.0000
     0.0000   0.0000

          k = 0.0476 0.0000 0.0000 (339123 PWs)   bands (ev):

   -28.1677 -27.8884 -26.6488 -26.5317 -18.7815 -15.5127 -13.5718 -11.1002
   -10.3348  -9.9838  -8.8470  -8.2978  -7.6628  -7.5388  -7.4145  -5.5210
    -5.3611  -5.2593  -4.6103  -4.2477  -4.1208  -2.8398   0.8661   3.4947
     3.5509   4.3054

     occupation numbers 
     1.0000   1.0000   1.0000   1.0000   1.0000   1.0000   1.0000   1.0000
     1.0000   1.0000   1.0000   1.0000   1.0000   1.0000   1.0000   1.0000
     1.0000   1.0000   1.0000   1.0000   1.0000   1.0000   0.0000   0.0000
     0.0000   0.0000

          k = 0.0476 0.0299 0.0000 (339160 PWs)   bands (ev):

   -28.1622 -27.8843 -26.6555 -26.5379 -18.7703 -15.5572 -13.5345 -11.0930
   -10.3140  -9.9909  -8.8381  -8.3004  -7.6812  -7.5199  -7.4174  -5.5350
    -5.3677  -5.2745  -4.6202  -4.2432  -4.1139  -2.8500   0.8921   3.4992
     3.5501   4.3371

     occupation numbers 
     1.0000   1.0000   1.0000   1.0000   1.0000   1.0000   1.0000   1.0000
     1.0000   1.0000   1.0000   1.0000   1.0000   1.0000   1.0000   1.0000
     1.0000   1.0000   1.0000   1.0000   1.0000   1.0000   0.0000   0.0000
     0.0000   0.0000

          k = 0.0476 0.0597 0.0000 (339070 PWs)   bands (ev):

   -28.1458 -27.8724 -26.6749 -26.5563 -18.7369 -15.6805 -13.4318 -11.0738
   -10.2531 -10.0097  -8.8116  -8.3089  -7.7322  -7.4675  -7.4264  -5.5747
    -5.3869  -5.3180  -4.6485  -4.2331  -4.0932  -2.8797   0.9686   3.5126
     3.5469   4.4278

     occupation numbers 
     1.0000   1.0000   1.0000   1.0000   1.0000   1.0000   1.0000   1.0000
     1.0000   1.0000   1.0000   1.0000   1.0000   1.0000   1.0000   1.0000
     1.0000   1.0000   1.0000   1.0000   1.0000   1.0000   0.0000   0.0000
     0.0000   0.0000

          k = 0.0476 0.0896 0.0000 (339075 PWs)   bands (ev):

   -28.1191 -27.8535 -26.7060 -26.5861 -18.6814 -15.8609 -13.2832 -11.0502
   -10.1568 -10.0324  -8.7682  -8.3244  -7.8118  -7.4430  -7.3858  -5.6333
    -5.4167  -5.3847  -4.6913  -4.2259  -4.0593  -2.9265   1.0914   3.5348
     3.5398   4.5614

     occupation numbers 
     1.0000   1.0000   1.0000   1.0000   1.0000   1.0000   1.0000   1.0000
     1.0000   1.0000   1.0000   1.0000   1.0000   1.0000   1.0000   1.0000
     1.0000   1.0000   1.0000   1.0000   1.0000   1.0000   0.0000   0.0000
     0.0000   0.0000

          k = 0.0476 0.1195 0.0000 (339038 PWs)   bands (ev):

   -28.0827 -27.8287 -26.7465 -26.6258 -18.6040 -16.0770 -13.1064 -11.0356
   -10.0452 -10.0319  -8.7096  -8.3490  -7.9173  -7.4688  -7.2775  -5.7029
    -5.4677  -5.4545  -4.7425  -4.2310  -4.0131  -2.9869   1.2547   3.5254
     3.5655   4.6810

     occupation numbers 
     1.0000   1.0000   1.0000   1.0000   1.0000   1.0000   1.0000   1.0000
     1.0000   1.0000   1.0000   1.0000   1.0000   1.0000   1.0000   1.0000
     1.0000   1.0000   1.0000   1.0000   1.0000   1.0000   0.0000   0.0000
     0.0000   0.0000

          k = 0.0476 0.1494 0.0000 (339071 PWs)   bands (ev):

   -28.0380 -27.8002 -26.7933 -26.6736 -18.5053 -16.3131 -12.9131 -11.0480
   -10.0302  -9.8869  -8.6395  -8.3852  -8.0427  -7.5059  -7.1469  -5.7782
    -5.5571  -5.4974  -4.7940  -4.2560  -3.9563  -3.0575   1.4514   3.4987
     3.6042   4.6837

     occupation numbers 
     1.0000   1.0000   1.0000   1.0000   1.0000   1.0000   1.0000   1.0000
     1.0000   1.0000   1.0000   1.0000   1.0000   1.0000   1.0000   1.0000
     1.0000   1.0000   1.0000   1.0000   1.0000   1.0000   0.0000   0.0000
     0.0000   0.0000

          k = 0.0476 0.1792 0.0000 (339047 PWs)   bands (ev):

   -27.9866 -27.7710 -26.8424 -26.7270 -18.3857 -16.5582 -12.7104 -11.1020
    -9.9731  -9.7309  -8.5703  -8.4353  -8.1730  -7.5562  -7.0003  -5.8594
    -5.6396  -5.5424  -4.8372  -4.3050  -3.8903  -3.1351   1.6740   3.4521
     3.6506   4.5758

     occupation numbers 
     1.0000   1.0000   1.0000   1.0000   1.0000   1.0000   1.0000   1.0000
     1.0000   1.0000   1.0000   1.0000   1.0000   1.0000   1.0000   1.0000
     1.0000   1.0000   1.0000   1.0000   1.0000   1.0000   0.0000   0.0000
     0.0000   0.0000

          k = 0.0476 0.2091 0.0000 (339031 PWs)   bands (ev):

   -27.9308 -27.7453 -26.8883 -26.7829 -18.2459 -16.8048 -12.5027 -11.2005
    -9.8718  -9.5743  -8.5498  -8.5009  -8.2558  -7.6210  -6.8456  -5.9510
    -5.7005  -5.5873  -4.8628  -4.3781  -3.8170  -3.2175   1.9150   3.3760
     3.7045   4.4214

     occupation numbers 
     1.0000   1.0000   1.0000   1.0000   1.0000   1.0000   1.0000   1.0000
     1.0000   1.0000   1.0000   1.0000   1.0000   1.0000   1.0000   1.0000
     1.0000   1.0000   1.0000   1.0000   1.0000   1.0000   0.0000   0.0000
     0.0000   0.0000

          k = 0.0476 0.2390 0.0000 (338967 PWs)   bands (ev):

   -27.8738 -27.7284 -26.9245 -26.8376 -18.0869 -17.0474 -12.2931 -11.3365
    -9.7356  -9.4306  -8.6395  -8.5816  -8.2203  -7.7005  -6.6911  -6.0543
    -5.7332  -5.6304  -4.8623  -4.4707  -3.7377  -3.3031   2.1667   3.2604
     3.7658   4.2638

     occupation numbers 
     1.0000   1.0000   1.0000   1.0000   1.0000   1.0000   1.0000   1.0000
     1.0000   1.0000   1.0000   1.0000   1.0000   1.0000   1.0000   1.0000
     1.0000   1.0000   1.0000   1.0000   1.0000   1.0000   0.0000   0.0000
     0.0000   0.0000

          k = 0.0476 0.2688 0.0000 (338925 PWs)   bands (ev):

   -27.8198 -27.7258 -26.9446 -26.8863 -17.9095 -17.2819 -12.0845 -11.5004
    -9.5795  -9.3269  -8.7599  -8.6733  -8.1232  -7.7939  -6.5441  -6.1656
    -5.7407  -5.6700  -4.8303  -4.5744  -3.6540  -3.3906   2.4211   3.1003
     3.8354   4.1248

     occupation numbers 
     1.0000   1.0000   1.0000   1.0000   1.0000   1.0000   1.0000   1.0000
     1.0000   1.0000   1.0000   1.0000   1.0000   1.0000   1.0000   1.0000
     1.0000   1.0000   1.0000   1.0000   1.0000   1.0000   0.0000   0.0000
     0.0000   0.0000

          k = 0.0476 0.2987 0.0000 (338898 PWs)   bands (ev):

   -27.7737 -27.7410 -26.9444 -26.9238 -17.7151 -17.5053 -11.8801 -11.6838
    -9.4256  -9.3195  -8.8110  -8.7626  -8.0110  -7.8989  -6.4082  -6.2830
    -5.7291  -5.7040  -4.7665  -4.6774  -3.5674  -3.4791   2.6690   2.8995
     3.9154   4.0099

     occupation numbers 
     1.0000   1.0000   1.0000   1.0000   1.0000   1.0000   1.0000   1.0000
     1.0000   1.0000   1.0000   1.0000   1.0000   1.0000   1.0000   1.0000
     1.0000   1.0000   1.0000   1.0000   1.0000   1.0000   0.0000   0.0000
     0.0000   0.0000

          k = 0.0952 0.0000 0.0000 (339166 PWs)   bands (ev):

   -28.1213 -27.8475 -26.6477 -26.5317 -18.6968 -15.4303 -13.5374 -11.0322
   -10.2932  -9.9955  -9.2328  -8.3540  -7.6717  -7.6350  -7.4860  -5.7018
    -5.5207  -5.2973  -4.6614  -4.3123  -4.2022  -3.1444   0.9992   3.9916
     4.1151   4.1211

     occupation numbers 
     1.0000   1.0000   1.0000   1.0000   1.0000   1.0000   1.0000   1.0000
     1.0000   1.0000   1.0000   1.0000   1.0000   1.0000   1.0000   1.0000
     1.0000   1.0000   1.0000   1.0000   1.0000   1.0000   0.0000   0.0000
     0.0000   0.0000

          k = 0.0952 0.0299 0.0000 (339204 PWs)   bands (ev):

   -28.1159 -27.8436 -26.6540 -26.5377 -18.6857 -15.4755 -13.4997 -11.0262
   -10.2744 -10.0027  -9.2229  -8.3582  -7.6749  -7.6539  -7.4673  -5.7169
    -5.5267  -5.2998  -4.6664  -4.3073  -4.2035  -3.1559   1.0232   3.9906
     4.1187   4.1528

     occupation numbers 
     1.0000   1.0000   1.0000   1.0000   1.0000   1.0000   1.0000   1.0000
     1.0000   1.0000   1.0000   1.0000   1.0000   1.0000   1.0000   1.0000
     1.0000   1.0000   1.0000   1.0000   1.0000   1.0000   0.0000   0.0000
     0.0000   0.0000

          k = 0.0952 0.0597 0.0000 (339229 PWs)   bands (ev):

   -28.0999 -27.8320 -26.6728 -26.5554 -18.6524 -15.6003 -13.3963 -11.0106
   -10.2196 -10.0218  -9.1932  -8.3712  -7.7059  -7.6844  -7.4157  -5.7560
    -5.5439  -5.3123  -4.6819  -4.2911  -4.2082  -3.1886   1.0941   3.9870
     4.1297   4.2443

     occupation numbers 
     1.0000   1.0000   1.0000   1.0000   1.0000   1.0000   1.0000   1.0000
     1.0000   1.0000   1.0000   1.0000   1.0000   1.0000   1.0000   1.0000
     1.0000   1.0000   1.0000   1.0000   1.0000   1.0000   0.0000   0.0000
     0.0000   0.0000

          k = 0.0952 0.0896 0.0000 (339159 PWs)   bands (ev):

   -28.0738 -27.8135 -26.7026 -26.5841 -18.5972 -15.7822 -13.2475 -10.9930
   -10.1339 -10.0451  -9.1438  -8.3943  -7.7861  -7.7007  -7.3359  -5.8063
    -5.5695  -5.3441  -4.7086  -4.2620  -4.2192  -3.2383   1.2088   3.9782
     4.1475   4.3854

     occupation numbers 
     1.0000   1.0000   1.0000   1.0000   1.0000   1.0000   1.0000   1.0000
     1.0000   1.0000   1.0000   1.0000   1.0000   1.0000   1.0000   1.0000
     1.0000   1.0000   1.0000   1.0000   1.0000   1.0000   0.0000   0.0000
     0.0000   0.0000

          k = 0.0952 0.1195 0.0000 (339127 PWs)   bands (ev):

   -28.0383 -27.7893 -26.7416 -26.6225 -18.5202 -15.9994 -13.0715 -10.9866
   -10.0589 -10.0250  -9.0757  -8.4290  -7.8903  -7.7243  -7.2308  -5.8559
    -5.6001  -5.4012  -4.7448  -4.2413  -4.2197  -3.2994   1.3625   3.9584
     4.1716   4.5509

     occupation numbers 
     1.0000   1.0000   1.0000   1.0000   1.0000   1.0000   1.0000   1.0000
     1.0000   1.0000   1.0000   1.0000   1.0000   1.0000   1.0000   1.0000
     1.0000   1.0000   1.0000   1.0000   1.0000   1.0000   0.0000   0.0000
     0.0000   0.0000

          k = 0.0952 0.1494 0.0000 (338995 PWs)   bands (ev):

   -27.9946 -27.7616 -26.7867 -26.6686 -18.4219 -16.2360 -12.8801 -11.0084
   -10.0463  -9.9020  -8.9921  -8.4768  -8.0123  -7.7558  -7.1044  -5.8975
    -5.6321  -5.4827  -4.7857  -4.2802  -4.1655  -3.3660   1.5497   3.9176
     4.2011   4.6757

     occupation numbers 
     1.0000   1.0000   1.0000   1.0000   1.0000   1.0000   1.0000   1.0000
     1.0000   1.0000   1.0000   1.0000   1.0000   1.0000   1.0000   1.0000
     1.0000   1.0000   1.0000   1.0000   1.0000   1.0000   0.0000   0.0000
     0.0000   0.0000

          k = 0.0952 0.1792 0.0000 (338987 PWs)   bands (ev):

   -27.9444 -27.7331 -26.8339 -26.7203 -18.3029 -16.4813 -12.6801 -11.0712
    -9.9946  -9.7742  -8.9010  -8.5381  -8.1404  -7.7962  -6.9621  -5.9295
    -5.6627  -5.5817  -4.8243  -4.3395  -4.1016  -3.4343   1.7646   3.8409
     4.2349   4.6808

     occupation numbers 
     1.0000   1.0000   1.0000   1.0000   1.0000   1.0000   1.0000   1.0000
     1.0000   1.0000   1.0000   1.0000   1.0000   1.0000   1.0000   1.0000
     1.0000   1.0000   1.0000   1.0000   1.0000   1.0000   0.0000   0.0000
     0.0000   0.0000

          k = 0.0952 0.2091 0.0000 (338959 PWs)   bands (ev):

   -27.8899 -27.7082 -26.8779 -26.7743 -18.1638 -16.7276 -12.4756 -11.1765
    -9.9037  -9.6511  -8.8228  -8.6116  -8.2508  -7.8468  -6.8106  -5.9591
    -5.6904  -5.6837  -4.8520  -4.4190  -4.0304  -3.5029   2.0012   3.7129
     4.2718   4.6100

     occupation numbers 
     1.0000   1.0000   1.0000   1.0000   1.0000   1.0000   1.0000   1.0000
     1.0000   1.0000   1.0000   1.0000   1.0000   1.0000   1.0000   1.0000
     1.0000   1.0000   1.0000   1.0000   1.0000   1.0000   0.0000   0.0000
     0.0000   0.0000

          k = 0.0952 0.2390 0.0000 (339016 PWs)   bands (ev):

   -27.8343 -27.6919 -26.9127 -26.8273 -18.0055 -16.9697 -12.2692 -11.3168
    -9.7841  -9.5435  -8.7961  -8.6932  -8.2990  -7.9097  -6.6566  -6.0089
    -5.7610  -5.7156  -4.8597  -4.5138  -3.9544  -3.5724   2.2540   3.5297
     4.3105   4.5355

     occupation numbers 
     1.0000   1.0000   1.0000   1.0000   1.0000   1.0000   1.0000   1.0000
     1.0000   1.0000   1.0000   1.0000   1.0000   1.0000   1.0000   1.0000
     1.0000   1.0000   1.0000   1.0000   1.0000   1.0000   0.0000   0.0000
     0.0000   0.0000

          k = 0.0952 0.2688 0.0000 (338924 PWs)   bands (ev):

   -27.7815 -27.6895 -26.9319 -26.8746 -17.8289 -17.2036 -12.0635 -11.4826
    -9.6522  -9.4701  -8.8320  -8.7750  -8.2600  -7.9863  -6.5055  -6.1014
    -5.7895  -5.7397  -4.8396  -4.6148  -3.8759  -3.6443   2.5172   3.3030
     4.3497   4.4769

     occupation numbers 
     1.0000   1.0000   1.0000   1.0000   1.0000   1.0000   1.0000   1.0000
     1.0000   1.0000   1.0000   1.0000   1.0000   1.0000   1.0000   1.0000
     1.0000   1.0000   1.0000   1.0000   1.0000   1.0000   0.0000   0.0000
     0.0000   0.0000

          k = 0.0952 0.2987 0.0000 (338944 PWs)   bands (ev):

   -27.7364 -27.7045 -26.9314 -26.9111 -17.6353 -17.4263 -11.8613 -11.6662
    -9.5323  -9.4615  -8.8641  -8.8410  -8.1728  -8.0759  -6.3606  -6.2241
    -5.7833  -5.7634  -4.7886  -4.7105  -3.7969  -3.7193   2.7849   3.0501
     4.3893   4.4304

     occupation numbers 
     1.0000   1.0000   1.0000   1.0000   1.0000   1.0000   1.0000   1.0000
     1.0000   1.0000   1.0000   1.0000   1.0000   1.0000   1.0000   1.0000
     1.0000   1.0000   1.0000   1.0000   1.0000   1.0000   0.0000   0.0000
     0.0000   0.0000

          k = 0.1429 0.0000 0.0000 (339150 PWs)   bands (ev):

   -28.0460 -27.7813 -26.6478 -26.5335 -18.5560 -15.2939 -13.4905 -10.9216
   -10.2270 -10.0257  -9.7638  -8.4607  -8.0491  -7.6406  -7.4006  -5.9200
    -5.7562  -5.3778  -4.7997  -4.5067  -4.1833  -3.5490   1.2018   3.9563
     4.5821   5.0232

     occupation numbers 
     1.0000   1.0000   1.0000   1.0000   1.0000   1.0000   1.0000   1.0000
     1.0000   1.0000   1.0000   1.0000   1.0000   1.0000   1.0000   1.0000
     1.0000   1.0000   1.0000   1.0000   1.0000   1.0000   0.0000   0.0000
     0.0000   0.0000

          k = 0.1429 0.0299 0.0000 (339156 PWs)   bands (ev):

   -28.0409 -27.7775 -26.6538 -26.5391 -18.5450 -15.3402 -13.4522 -10.9178
   -10.2152 -10.0334  -9.7473  -8.4695  -8.0489  -7.6595  -7.3844  -5.9310
    -5.7601  -5.3712  -4.7963  -4.5062  -4.1889  -3.5626   1.2231   3.9885
     4.5807   5.0246

     occupation numbers 
     1.0000   1.0000   1.0000   1.0000   1.0000   1.0000   1.0000   1.0000
     1.0000   1.0000   1.0000   1.0000   1.0000   1.0000   1.0000   1.0000
     1.0000   1.0000   1.0000   1.0000   1.0000   1.0000   0.0000   0.0000
     0.0000   0.0000

          k = 0.1429 0.0597 0.0000 (339185 PWs)   bands (ev):

   -28.0255 -27.7664 -26.6712 -26.5558 -18.5120 -15.4676 -13.3480 -10.9088
   -10.1819 -10.0540  -9.6976  -8.4954  -8.0486  -7.7133  -7.3382  -5.9580
    -5.7709  -5.3591  -4.7888  -4.5026  -4.2057  -3.6007   1.2864   4.0824
     4.5759   5.0295

     occupation numbers 
     1.0000   1.0000   1.0000   1.0000   1.0000   1.0000   1.0000   1.0000
     1.0000   1.0000   1.0000   1.0000   1.0000   1.0000   1.0000   1.0000
     1.0000   1.0000   1.0000   1.0000   1.0000   1.0000   0.0000   0.0000
     0.0000   0.0000

          k = 0.1429 0.0896 0.0000 (339179 PWs)   bands (ev):

   -28.0004 -27.7487 -26.6991 -26.5828 -18.4572 -15.6520 -13.1996 -10.9021
   -10.1325 -10.0799  -9.6143  -8.5378  -8.0488  -7.7967  -7.2655  -5.9887
    -5.7862  -5.3573  -4.7842  -4.4900  -4.2342  -3.6562   1.3895   4.2281
     4.5655   5.0373

     occupation numbers 
     1.0000   1.0000   1.0000   1.0000   1.0000   1.0000   1.0000   1.0000
     1.0000   1.0000   1.0000   1.0000   1.0000   1.0000   1.0000   1.0000
     1.0000   1.0000   1.0000   1.0000   1.0000   1.0000   0.0000   0.0000
     0.0000   0.0000

          k = 0.1429 0.1195 0.0000 (339154 PWs)   bands (ev):

   -27.9663 -27.7256 -26.7356 -26.6188 -18.3809 -15.8709 -13.0259 -10.9106
   -10.0978 -10.0730  -9.5001  -8.5948  -8.0508  -7.9042  -7.1694  -6.0129
    -5.8028  -5.3806  -4.7898  -4.4622  -4.2762  -3.7188   1.5296   4.3855
     4.5669   5.0471

     occupation numbers 
     1.0000   1.0000   1.0000   1.0000   1.0000   1.0000   1.0000   1.0000
     1.0000   1.0000   1.0000   1.0000   1.0000   1.0000   1.0000   1.0000
     1.0000   1.0000   1.0000   1.0000   1.0000   1.0000   0.0000   0.0000
     0.0000   0.0000

          k = 0.1429 0.1494 0.0000 (339090 PWs)   bands (ev):

   -27.9243 -27.6991 -26.7777 -26.6623 -18.2835 -16.1084 -12.8385 -10.9497
   -10.0920 -10.0078  -9.3624  -8.6635  -8.0567  -8.0282  -7.0533  -6.0249
    -5.8177  -5.4371  -4.8077  -4.4173  -4.3348  -3.7783   1.7029   4.3885
     4.7047   5.0580

     occupation numbers 
     1.0000   1.0000   1.0000   1.0000   1.0000   1.0000   1.0000   1.0000
     1.0000   1.0000   1.0000   1.0000   1.0000   1.0000   1.0000   1.0000
     1.0000   1.0000   1.0000   1.0000   1.0000   1.0000   0.0000   0.0000
     0.0000   0.0000

          k = 0.1429 0.1792 0.0000 (339055 PWs)   bands (ev):

   -27.8762 -27.6721 -26.8218 -26.7109 -18.1655 -16.3538 -12.6438 -11.0291
   -10.0534  -9.9399  -9.2141  -8.7397  -8.1584  -8.0693  -6.9212  -6.0239
    -5.8287  -5.5267  -4.8332  -4.4113  -4.3585  -3.8293   1.9052   4.2544
     4.8914   5.4176

     occupation numbers 
     1.0000   1.0000   1.0000   1.0000   1.0000   1.0000   1.0000   1.0000
     1.0000   1.0000   1.0000   1.0000   1.0000   1.0000   1.0000   1.0000
     1.0000   1.0000   1.0000   1.0000   1.0000   1.0000   0.0000   0.0000
     0.0000   0.0000

          k = 0.1429 0.2091 0.0000 (339038 PWs)   bands (ev):

   -27.8239 -27.6484 -26.8630 -26.7620 -18.0275 -16.5997 -12.4451 -11.1474
    -9.9854  -9.8723  -9.0748  -8.8175  -8.2782  -8.0916  -6.7778  -6.0139
    -5.8350  -5.6417  -4.8581  -4.5024  -4.2907  -3.8733   2.1326   4.0442
     4.9927   5.0765

     occupation numbers 
     1.0000   1.0000   1.0000   1.0000   1.0000   1.0000   1.0000   1.0000
     1.0000   1.0000   1.0000   1.0000   1.0000   1.0000   1.0000   1.0000
     1.0000   1.0000   1.0000   1.0000   1.0000   1.0000   0.0000   0.0000
     0.0000   0.0000

          k = 0.1429 0.2390 0.0000 (339039 PWs)   bands (ev):

   -27.7706 -27.6330 -26.8952 -26.8122 -17.8704 -16.8410 -12.2445 -11.2963
    -9.9010  -9.8100  -8.9738  -8.8888  -8.3593  -8.1273  -6.6273  -6.0087
    -5.8384  -5.7637  -4.8727  -4.6005  -4.2189  -3.9158   2.3810   3.7856
     5.0284   5.0810

     occupation numbers 
     1.0000   1.0000   1.0000   1.0000   1.0000   1.0000   1.0000   1.0000
     1.0000   1.0000   1.0000   1.0000   1.0000   1.0000   1.0000   1.0000
     1.0000   1.0000   1.0000   1.0000   1.0000   1.0000   0.0000   0.0000
     0.0000   0.0000

          k = 0.1429 0.2688 0.0000 (339041 PWs)   bands (ev):

   -27.7199 -27.6310 -26.9128 -26.8571 -17.6951 -17.0738 -12.0439 -11.4667
    -9.8186  -9.7616  -8.9421  -8.9399  -8.3694  -8.1787  -6.4734  -6.0514
    -5.8462  -5.8423  -4.8678  -4.6956  -4.1470  -3.9626   2.6466   3.5031
     5.0478   5.0804

     occupation numbers 
     1.0000   1.0000   1.0000   1.0000   1.0000   1.0000   1.0000   1.0000
     1.0000   1.0000   1.0000   1.0000   1.0000   1.0000   1.0000   1.0000
     1.0000   1.0000   1.0000   1.0000   1.0000   1.0000   0.0000   0.0000
     0.0000   0.0000

          k = 0.1429 0.2987 0.0000 (339014 PWs)   bands (ev):

   -27.6766 -27.6457 -26.9117 -26.8920 -17.5029 -17.2952 -11.8453 -11.6515
    -9.7595  -9.7404  -8.9648  -8.9547  -8.3174  -8.2450  -6.3191  -6.1706
    -5.8591  -5.8501  -4.8363  -4.7773  -4.0787  -4.0167   2.9255   3.2131
     5.0630   5.0743

     occupation numbers 
     1.0000   1.0000   1.0000   1.0000   1.0000   1.0000   1.0000   1.0000
     1.0000   1.0000   1.0000   1.0000   1.0000   1.0000   1.0000   1.0000
     1.0000   1.0000   1.0000   1.0000   1.0000   1.0000   0.0000   0.0000
     0.0000   0.0000

          k = 0.1905 0.0000 0.0000 (339182 PWs)   bands (ev):

   -27.9450 -27.6924 -26.6522 -26.5396 -18.3597 -15.1046 -13.4529 -10.7735
   -10.3538 -10.1407 -10.0967  -8.6302  -8.4823  -7.6902  -7.2873  -6.1181
    -6.0312  -5.5160  -5.0572  -4.6189  -4.2162  -3.9742   1.4548   3.8478
     5.1881   5.7271

     occupation numbers 
     1.0000   1.0000   1.0000   1.0000   1.0000   1.0000   1.0000   1.0000
     1.0000   1.0000   1.0000   1.0000   1.0000   1.0000   1.0000   1.0000
     1.0000   1.0000   1.0000   1.0000   1.0000   1.0000   0.0000   0.0000
     0.0000   0.0000

          k = 0.1905 0.0299 0.0000 (339162 PWs)   bands (ev):

   -27.9401 -27.6889 -26.6576 -26.5447 -18.3488 -15.1527 -13.4141 -10.7732
   -10.3656 -10.1060 -10.1006  -8.6588  -8.4605  -7.7097  -7.2748  -6.1242
    -6.0314  -5.5021  -5.0485  -4.6195  -4.2258  -3.9885   1.4732   3.8793
     5.1857   5.7364

     occupation numbers 
     1.0000   1.0000   1.0000   1.0000   1.0000   1.0000   1.0000   1.0000
     1.0000   1.0000   1.0000   1.0000   1.0000   1.0000   1.0000   1.0000
     1.0000   1.0000   1.0000   1.0000   1.0000   1.0000   0.0000   0.0000
     0.0000   0.0000

          k = 0.1905 0.0597 0.0000 (339180 PWs)   bands (ev):

   -27.9256 -27.6785 -26.6734 -26.5599 -18.3163 -15.2839 -13.3097 -10.7749
   -10.3824 -10.1315 -10.0012  -8.7203  -8.4189  -7.7659  -7.2382  -6.1379
    -6.0318  -5.4680  -5.0240  -4.6206  -4.2555  -4.0276   1.5281   3.9715
     5.1769   5.7591

     occupation numbers 
     1.0000   1.0000   1.0000   1.0000   1.0000   1.0000   1.0000   1.0000
     1.0000   1.0000   1.0000   1.0000   1.0000   1.0000   1.0000   1.0000
     1.0000   1.0000   1.0000   1.0000   1.0000   1.0000   0.0000   0.0000
     0.0000   0.0000

          k = 0.1905 0.0896 0.0000 (339163 PWs)   bands (ev):

   -27.9020 -27.6620 -26.6986 -26.5845 -18.2622 -15.4719 -13.1638 -10.7864
   -10.3866 -10.1648  -9.8654  -8.7936  -8.3768  -7.8531  -7.1789  -6.1495
    -6.0317  -5.4321  -4.9890  -4.6204  -4.3074  -4.0799   1.6186   4.1165
     5.1564   5.7722

     occupation numbers 
     1.0000   1.0000   1.0000   1.0000   1.0000   1.0000   1.0000   1.0000
     1.0000   1.0000   1.0000   1.0000   1.0000   1.0000   1.0000   1.0000
     1.0000   1.0000   1.0000   1.0000   1.0000   1.0000   0.0000   0.0000
     0.0000   0.0000

          k = 0.1905 0.1195 0.0000 (339122 PWs)   bands (ev):

   -27.8699 -27.6404 -26.7315 -26.6175 -18.1869 -15.6931 -12.9956 -10.8206
   -10.3745 -10.1923  -9.7060  -8.8710  -8.3396  -7.9633  -7.0988  -6.1515
    -6.0297  -5.4147  -4.9520  -4.6143  -4.3825  -4.1307   1.7432   4.2967
     5.1145   5.7372

     occupation numbers 
     1.0000   1.0000   1.0000   1.0000   1.0000   1.0000   1.0000   1.0000
     1.0000   1.0000   1.0000   1.0000   1.0000   1.0000   1.0000   1.0000
     1.0000   1.0000   1.0000   1.0000   1.0000   1.0000   0.0000   0.0000
     0.0000   0.0000

          k = 0.1905 0.1494 0.0000 (339122 PWs)   bands (ev):

   -27.8304 -27.6158 -26.7696 -26.6572 -18.0906 -15.9316 -12.8164 -10.8902
   -10.3475 -10.2005  -9.5346  -8.9474  -8.3098  -8.0869  -7.0000  -6.1411
    -6.0245  -5.4333  -4.9240  -4.5952  -4.4754  -4.1694   1.9000   4.4616
     5.0628   5.6644

     occupation numbers 
     1.0000   1.0000   1.0000   1.0000   1.0000   1.0000   1.0000   1.0000
     1.0000   1.0000   1.0000   1.0000   1.0000   1.0000   1.0000   1.0000
     1.0000   1.0000   1.0000   1.0000   1.0000   1.0000   0.0000   0.0000
     0.0000   0.0000

          k = 0.1905 0.1792 0.0000 (339138 PWs)   bands (ev):

   -27.7852 -27.5906 -26.8094 -26.7018 -17.9740 -16.1770 -12.6316 -10.9990
   -10.3086 -10.1855  -9.3648  -9.0176  -8.2893  -8.2122  -6.8847  -6.1192
    -6.0149  -5.4974  -4.9133  -4.5757  -4.5574  -4.1946   2.0869   4.4673
     5.1223   5.6153

     occupation numbers 
     1.0000   1.0000   1.0000   1.0000   1.0000   1.0000   1.0000   1.0000
     1.0000   1.0000   1.0000   1.0000   1.0000   1.0000   1.0000   1.0000
     1.0000   1.0000   1.0000   1.0000   1.0000   1.0000   0.0000   0.0000
     0.0000   0.0000

          k = 0.1905 0.2091 0.0000 (339125 PWs)   bands (ev):

   -27.7361 -27.5688 -26.8464 -26.7488 -17.8377 -16.4221 -12.4433 -11.1408
   -10.2616 -10.1553  -9.2152  -9.0755  -8.3234  -8.2806  -6.7551  -6.0906
    -6.0005  -5.6042  -4.9185  -4.6742  -4.5033  -4.2110   2.3013   4.2694
     5.3511   5.6066

     occupation numbers 
     1.0000   1.0000   1.0000   1.0000   1.0000   1.0000   1.0000   1.0000
     1.0000   1.0000   1.0000   1.0000   1.0000   1.0000   1.0000   1.0000
     1.0000   1.0000   1.0000   1.0000   1.0000   1.0000   0.0000   0.0000
     0.0000   0.0000

          k = 0.1905 0.2390 0.0000 (339067 PWs)   bands (ev):

   -27.6859 -27.5549 -26.8752 -26.7951 -17.6823 -16.6621 -12.2525 -11.3058
   -10.2111 -10.1233  -9.1138  -9.1100  -8.3986  -8.2865  -6.6132  -6.0648
    -5.9829  -5.7395  -4.9300  -4.7642  -4.4412  -4.2263   2.5408   3.9891
     5.6262   5.6479

     occupation numbers 
     1.0000   1.0000   1.0000   1.0000   1.0000   1.0000   1.0000   1.0000
     1.0000   1.0000   1.0000   1.0000   1.0000   1.0000   1.0000   1.0000
     1.0000   1.0000   1.0000   1.0000   1.0000   1.0000   0.0000   0.0000
     0.0000   0.0000

          k = 0.1905 0.2688 0.0000 (339091 PWs)   bands (ev):

   -27.6382 -27.5536 -26.8904 -26.8368 -17.5089 -16.8932 -12.0598 -11.4856
   -10.1630 -10.1027  -9.1259  -9.0695  -8.4180  -8.3086  -6.4612  -6.0660
    -5.9656  -5.8720  -4.9363  -4.8399  -4.3794  -4.2476   2.8025   3.6852
     5.6630   5.8136

     occupation numbers 
     1.0000   1.0000   1.0000   1.0000   1.0000   1.0000   1.0000   1.0000
     1.0000   1.0000   1.0000   1.0000   1.0000   1.0000   1.0000   1.0000
     1.0000   1.0000   1.0000   1.0000   1.0000   1.0000   0.0000   0.0000
     0.0000   0.0000

          k = 0.1905 0.2987 0.0000 (339071 PWs)   bands (ev):

   -27.5973 -27.5679 -26.8884 -26.8695 -17.3186 -17.1128 -11.8663 -11.6739
   -10.1243 -10.1025  -9.1113  -9.0825  -8.3901  -8.3461  -6.3032  -6.1534
    -5.9522  -5.9368  -4.9271  -4.8954  -4.3242  -4.2798   3.0835   3.3798
     5.7097   5.7613

     occupation numbers 
     1.0000   1.0000   1.0000   1.0000   1.0000   1.0000   1.0000   1.0000
     1.0000   1.0000   1.0000   1.0000   1.0000   1.0000   1.0000   1.0000
     1.0000   1.0000   1.0000   1.0000   1.0000   1.0000   0.0000   0.0000
     0.0000   0.0000

          k = 0.2381 0.0000 0.0000 (339160 PWs)   bands (ev):

   -27.8224 -27.5847 -26.6647 -26.5532 -18.1087 -14.8642 -13.4689 -10.9094
   -10.5967 -10.2533 -10.0403  -8.8881  -8.8623  -7.7837  -7.1571  -6.3035
    -6.2628  -5.7217  -5.3493  -4.6978  -4.3666  -4.3038   1.7425   3.8188
     5.6797   6.1722

     occupation numbers 
     1.0000   1.0000   1.0000   1.0000   1.0000   1.0000   1.0000   1.0000
     1.0000   1.0000   1.0000   1.0000   1.0000   1.0000   1.0000   1.0000
     1.0000   1.0000   1.0000   1.0000   1.0000   1.0000   0.0000   0.0000
     0.0000   0.0000

          k = 0.2381 0.0299 0.0000 (339156 PWs)   bands (ev):

   -27.8179 -27.5815 -26.6693 -26.5577 -18.0980 -14.9151 -13.4300 -10.9040
   -10.6032 -10.2654 -10.0168  -8.9591  -8.7910  -7.8046  -7.1485  -6.2996
    -6.2656  -5.7015  -5.3372  -4.6965  -4.4060  -4.2908   1.7581   3.8478
     5.6737   6.1785

     occupation numbers 
     1.0000   1.0000   1.0000   1.0000   1.0000   1.0000   1.0000   1.0000
     1.0000   1.0000   1.0000   1.0000   1.0000   1.0000   1.0000   1.0000
     1.0000   1.0000   1.0000   1.0000   1.0000   1.0000   0.0000   0.0000
     0.0000   0.0000

          k = 0.2381 0.0597 0.0000 (339135 PWs)   bands (ev):

   -27.8046 -27.5721 -26.6830 -26.5711 -18.0660 -15.0521 -13.3280 -10.8877
   -10.6265 -10.2968  -9.9487  -9.0379  -8.7107  -7.8642  -7.1229  -6.2889
    -6.2698  -5.6479  -5.3030  -4.6926  -4.4882  -4.2851   1.8050   3.9328
     5.6525   6.1869

     occupation numbers 
     1.0000   1.0000   1.0000   1.0000   1.0000   1.0000   1.0000   1.0000
     1.0000   1.0000   1.0000   1.0000   1.0000   1.0000   1.0000   1.0000
     1.0000   1.0000   1.0000   1.0000   1.0000   1.0000   0.0000   0.0000
     0.0000   0.0000

          k = 0.2381 0.0896 0.0000 (339161 PWs)   bands (ev):

   -27.7829 -27.5571 -26.7048 -26.5927 -18.0129 -15.2447 -13.1898 -10.8604
   -10.6777 -10.3342  -9.8427  -9.1106  -8.6346  -7.9540  -7.0802  -6.2733
    -6.2681  -5.5783  -5.2517  -4.6863  -4.5935  -4.2980   1.8831   4.0671
     5.6038   6.1638

     occupation numbers 
     1.0000   1.0000   1.0000   1.0000   1.0000   1.0000   1.0000   1.0000
     1.0000   1.0000   1.0000   1.0000   1.0000   1.0000   1.0000   1.0000
     1.0000   1.0000   1.0000   1.0000   1.0000   1.0000   0.0000   0.0000
     0.0000   0.0000

          k = 0.2381 0.1195 0.0000 (339198 PWs)   bands (ev):

   -27.7535 -27.5376 -26.7333 -26.6218 -17.9388 -15.4686 -13.0348 -10.8226
   -10.7685 -10.3619  -9.7098  -9.1747  -8.5647  -8.0628  -7.0207  -6.2557
    -6.2540  -5.5141  -5.1914  -4.7111  -4.6771  -4.3252   1.9924   4.2376
     5.5034   6.0989

     occupation numbers 
     1.0000   1.0000   1.0000   1.0000   1.0000   1.0000   1.0000   1.0000
     1.0000   1.0000   1.0000   1.0000   1.0000   1.0000   1.0000   1.0000
     1.0000   1.0000   1.0000   1.0000   1.0000   1.0000   0.0000   0.0000
     0.0000   0.0000

          k = 0.2381 0.1494 0.0000 (339206 PWs)   bands (ev):

   -27.7173 -27.5154 -26.7663 -26.6569 -17.8442 -15.7080 -12.8725 -10.8987
   -10.7752 -10.3751  -9.5641  -9.2286  -8.5026  -8.1780  -6.9443  -6.2325
    -6.2311  -5.4805  -5.1323  -4.8257  -4.6627  -4.3591   2.1324   4.4157
     5.3466   6.0511

     occupation numbers 
     1.0000   1.0000   1.0000   1.0000   1.0000   1.0000   1.0000   1.0000
     1.0000   1.0000   1.0000   1.0000   1.0000   1.0000   1.0000   1.0000
     1.0000   1.0000   1.0000   1.0000   1.0000   1.0000   0.0000   0.0000
     0.0000   0.0000

          k = 0.2381 0.1792 0.0000 (339225 PWs)   bands (ev):

   -27.6758 -27.4929 -26.8007 -26.6965 -17.7294 -15.9528 -12.7062 -11.0583
   -10.7204 -10.3793  -9.4235  -9.2703  -8.4504  -8.2856  -6.8512  -6.2039
    -6.2019  -5.5032  -5.0854  -4.9180  -4.6396  -4.3908   2.3027   4.5201
     5.2186   6.0514

     occupation numbers 
     1.0000   1.0000   1.0000   1.0000   1.0000   1.0000   1.0000   1.0000
     1.0000   1.0000   1.0000   1.0000   1.0000   1.0000   1.0000   1.0000
     1.0000   1.0000   1.0000   1.0000   1.0000   1.0000   0.0000   0.0000
     0.0000   0.0000

          k = 0.2381 0.2091 0.0000 (339151 PWs)   bands (ev):

   -27.6308 -27.4735 -26.8325 -26.7383 -17.5952 -16.1966 -12.5364 -11.2366
   -10.6607 -10.3823  -9.3091  -9.2973  -8.4104  -8.3698  -6.7415  -6.1716
    -6.1707  -5.5908  -5.0584  -4.9798  -4.6053  -4.4138   2.5023   4.4166
     5.2703   6.0986

     occupation numbers 
     1.0000   1.0000   1.0000   1.0000   1.0000   1.0000   1.0000   1.0000
     1.0000   1.0000   1.0000   1.0000   1.0000   1.0000   1.0000   1.0000
     1.0000   1.0000   1.0000   1.0000   1.0000   1.0000   0.0000   0.0000
     0.0000   0.0000

          k = 0.2381 0.2390 0.0000 (339136 PWs)   bands (ev):

   -27.5847 -27.4616 -26.8567 -26.7798 -17.4422 -16.4346 -12.3623 -11.4250
   -10.5992 -10.3909  -9.3070  -9.2406  -8.4160  -8.3852  -6.6161  -6.1496
    -6.1341  -5.7228  -5.0514  -5.0204  -4.5628  -4.4279   2.7298   4.1609
     5.4481   6.1757

     occupation numbers 
     1.0000   1.0000   1.0000   1.0000   1.0000   1.0000   1.0000   1.0000
     1.0000   1.0000   1.0000   1.0000   1.0000   1.0000   1.0000   1.0000
     1.0000   1.0000   1.0000   1.0000   1.0000   1.0000   0.0000   0.0000
     0.0000   0.0000

          k = 0.2381 0.2688 0.0000 (339119 PWs)   bands (ev):

   -27.5408 -27.4614 -26.8687 -26.8174 -17.2713 -16.6634 -12.1831 -11.6174
   -10.5397 -10.4099  -9.2982  -9.2239  -8.4219  -8.3767  -6.4778  -6.1551
    -6.0923  -5.8654  -5.0566  -5.0480  -4.5194  -4.4393   2.9833   3.8604
     5.6369   6.0580

     occupation numbers 
     1.0000   1.0000   1.0000   1.0000   1.0000   1.0000   1.0000   1.0000
     1.0000   1.0000   1.0000   1.0000   1.0000   1.0000   1.0000   1.0000
     1.0000   1.0000   1.0000   1.0000   1.0000   1.0000   0.0000   0.0000
     0.0000   0.0000

          k = 0.2381 0.2987 0.0000 (339153 PWs)   bands (ev):

   -27.5030 -27.4754 -26.8655 -26.8474 -17.0836 -16.8804 -11.9987 -11.8096
   -10.4859 -10.4418  -9.2737  -9.2429  -8.4043  -8.3847  -6.3356  -6.2149
    -6.0453  -5.9787  -5.0634  -5.0623  -4.4824  -4.4558   3.2599   3.5549
     5.7981   5.9345

     occupation numbers 
     1.0000   1.0000   1.0000   1.0000   1.0000   1.0000   1.0000   1.0000
     1.0000   1.0000   1.0000   1.0000   1.0000   1.0000   1.0000   1.0000
     1.0000   1.0000   1.0000   1.0000   1.0000   1.0000   0.0000   0.0000
     0.0000   0.0000

          k = 0.2857 0.0000 0.0000 (339170 PWs)   bands (ev):

   -27.6836 -27.4629 -26.6892 -26.5777 -17.8041 -14.5750 -13.6139 -11.3191
   -10.5500 -10.4107  -9.9339  -9.1823  -9.1318  -7.9190  -7.0442  -6.5109
    -6.3474  -5.9882  -5.6239  -4.7703  -4.7031  -4.4338   2.0553   3.8816
     5.8535   6.8518

     occupation numbers 
     1.0000   1.0000   1.0000   1.0000   1.0000   1.0000   1.0000   1.0000
     1.0000   1.0000   1.0000   1.0000   1.0000   1.0000   1.0000   1.0000
     1.0000   1.0000   1.0000   1.0000   1.0000   1.0000   0.0000   0.0000
     0.0000   0.0000

          k = 0.2857 0.0299 0.0000 (339201 PWs)   bands (ev):

   -27.6796 -27.4601 -26.6930 -26.5815 -17.7936 -14.6314 -13.5748 -11.3062
   -10.5868 -10.4053  -9.9157  -9.2472  -9.0544  -7.9411  -7.0366  -6.5075
    -6.3490  -5.9633  -5.6071  -4.7667  -4.7371  -4.4251   2.0685   3.9062
     5.8402   6.6830

     occupation numbers 
     1.0000   1.0000   1.0000   1.0000   1.0000   1.0000   1.0000   1.0000
     1.0000   1.0000   1.0000   1.0000   1.0000   1.0000   1.0000   1.0000
     1.0000   1.0000   1.0000   1.0000   1.0000   1.0000   0.0000   0.0000
     0.0000   0.0000

          k = 0.2857 0.0597 0.0000 (339146 PWs)   bands (ev):

   -27.6678 -27.4519 -26.7043 -26.5927 -17.7623 -14.7779 -13.4784 -11.2691
   -10.6808 -10.4026  -9.8628  -9.3163  -8.9498  -8.0025  -7.0153  -6.4972
    -6.3495  -5.8961  -5.5600  -4.8234  -4.7565  -4.4128   2.1084   3.9785
     5.7974   6.6300

     occupation numbers 
     1.0000   1.0000   1.0000   1.0000   1.0000   1.0000   1.0000   1.0000
     1.0000   1.0000   1.0000   1.0000   1.0000   1.0000   1.0000   1.0000
     1.0000   1.0000   1.0000   1.0000   1.0000   1.0000   0.0000   0.0000
     0.0000   0.0000

          k = 0.2857 0.0896 0.0000 (339183 PWs)   bands (ev):

   -27.6485 -27.4388 -26.7221 -26.6110 -17.7103 -14.9767 -13.3563 -11.2126
   -10.8144 -10.4109  -9.7806  -9.3705  -8.8427  -8.0903  -6.9827  -6.4800
    -6.3420  -5.8018  -5.4907  -4.9402  -4.7405  -4.4129   2.1755   4.0931
     5.7170   6.5620

     occupation numbers 
     1.0000   1.0000   1.0000   1.0000   1.0000   1.0000   1.0000   1.0000
     1.0000   1.0000   1.0000   1.0000   1.0000   1.0000   1.0000   1.0000
     1.0000   1.0000   1.0000   1.0000   1.0000   1.0000   0.0000   0.0000
     0.0000   0.0000

          k = 0.2857 0.1195 0.0000 (339137 PWs)   bands (ev):

   -27.6224 -27.4219 -26.7455 -26.6355 -17.6379 -15.2029 -13.2254 -11.1428
   -10.9774 -10.4284  -9.6787  -9.4115  -8.7389  -8.1892  -6.9398  -6.4555
    -6.3244  -5.6965  -5.4104  -5.0729  -4.7202  -4.4299   2.2707   4.2398
     5.5901   6.5010

     occupation numbers 
     1.0000   1.0000   1.0000   1.0000   1.0000   1.0000   1.0000   1.0000
     1.0000   1.0000   1.0000   1.0000   1.0000   1.0000   1.0000   1.0000
     1.0000   1.0000   1.0000   1.0000   1.0000   1.0000   0.0000   0.0000
     0.0000   0.0000

          k = 0.2857 0.1494 0.0000 (339143 PWs)   bands (ev):

   -27.5903 -27.4028 -26.7724 -26.6652 -17.5452 -15.4419 -13.0908 -11.1607
   -11.0652 -10.4514  -9.5718  -9.4421  -8.6425  -8.2836  -6.8857  -6.4230
    -6.2995  -5.5993  -5.3311  -5.2076  -4.6963  -4.4602   2.3949   4.3985
     5.4217   6.4682

     occupation numbers 
     1.0000   1.0000   1.0000   1.0000   1.0000   1.0000   1.0000   1.0000
     1.0000   1.0000   1.0000   1.0000   1.0000   1.0000   1.0000   1.0000
     1.0000   1.0000   1.0000   1.0000   1.0000   1.0000   0.0000   0.0000
     0.0000   0.0000

          k = 0.2857 0.1792 0.0000 (339159 PWs)   bands (ev):

   -27.5535 -27.3837 -26.8003 -26.6988 -17.4329 -15.6850 -12.9525 -11.3564
   -10.9844 -10.4778  -9.4782  -9.4641  -8.5572  -8.3582  -6.8189  -6.3812
    -6.2745  -5.5477  -5.3117  -5.2639  -4.6694  -4.4958   2.5489   4.5212
     5.2554   6.3147

     occupation numbers 
     1.0000   1.0000   1.0000   1.0000   1.0000   1.0000   1.0000   1.0000
     1.0000   1.0000   1.0000   1.0000   1.0000   1.0000   1.0000   1.0000
     1.0000   1.0000   1.0000   1.0000   1.0000   1.0000   0.0000   0.0000
     0.0000   0.0000

          k = 0.2857 0.2091 0.0000 (339198 PWs)   bands (ev):

   -27.5135 -27.3677 -26.8257 -26.7346 -17.3014 -15.9261 -12.8086 -11.5575
   -10.9039 -10.5076  -9.4771  -9.4157  -8.4862  -8.4014  -6.7389  -6.3280
    -6.2591  -5.6059  -5.3244  -5.2173  -4.6402  -4.5269   2.7329   4.4996
     5.2013   6.1556

     occupation numbers 
     1.0000   1.0000   1.0000   1.0000   1.0000   1.0000   1.0000   1.0000
     1.0000   1.0000   1.0000   1.0000   1.0000   1.0000   1.0000   1.0000
     1.0000   1.0000   1.0000   1.0000   1.0000   1.0000   0.0000   0.0000
     0.0000   0.0000

          k = 0.2857 0.2390 0.0000 (339207 PWs)   bands (ev):

   -27.4726 -27.3585 -26.8444 -26.7704 -17.1514 -16.1609 -12.6570 -11.7585
   -10.8262 -10.5418  -9.4799  -9.3921  -8.4323  -8.4115  -6.6472  -6.2646
    -6.2611  -5.7255  -5.2917  -5.1948  -4.6111  -4.5465   2.9463   4.3008
     5.2951   6.0043

     occupation numbers 
     1.0000   1.0000   1.0000   1.0000   1.0000   1.0000   1.0000   1.0000
     1.0000   1.0000   1.0000   1.0000   1.0000   1.0000   1.0000   1.0000
     1.0000   1.0000   1.0000   1.0000   1.0000   1.0000   0.0000   0.0000
     0.0000   0.0000

[...]
     1.0000   1.0000   1.0000   1.0000   1.0000   1.0000   1.0000   1.0000
     1.0000   1.0000   1.0000   1.0000   1.0000   1.0000   0.0000   0.0000
     0.0000   0.0000

          k = 0.4286 0.2390 0.0000 (339220 PWs)   bands (ev):

   -27.1364 -27.0566 -26.8811 -26.8164 -16.0014 -15.1857 -14.1287 -13.3720
   -10.6957 -10.4991  -9.9440  -9.8720  -8.3905  -8.3547  -6.9154  -6.7727
    -6.2267  -5.8800  -5.6607  -5.4989  -4.6797  -4.6615   3.7373   4.3849
     5.0533   5.2587

     occupation numbers 
     1.0000   1.0000   1.0000   1.0000   1.0000   1.0000   1.0000   1.0000
     1.0000   1.0000   1.0000   1.0000   1.0000   1.0000   1.0000   1.0000
     1.0000   1.0000   1.0000   1.0000   1.0000   1.0000   0.0000   0.0000
     0.0000   0.0000

          k = 0.4286 0.2688 0.0000 (339221 PWs)   bands (ev):

   -27.1168 -27.0668 -26.8724 -26.8316 -15.8538 -15.3515 -14.0328 -13.5664
   -10.6486 -10.5366  -9.9482  -9.9075  -8.3345  -8.3156  -6.9259  -6.8368
    -6.0716  -5.7798  -5.6754  -5.5055  -4.6841  -4.6611   3.8884   4.2908
     5.1294   5.2180

     occupation numbers 
     1.0000   1.0000   1.0000   1.0000   1.0000   1.0000   1.0000   1.0000
     1.0000   1.0000   1.0000   1.0000   1.0000   1.0000   1.0000   1.0000
     1.0000   1.0000   1.0000   1.0000   1.0000   1.0000   0.0000   0.0000
     0.0000   0.0000

          k = 0.4286 0.2987 0.0000 (339224 PWs)   bands (ev):

   -27.0980 -27.0809 -26.8605 -26.8466 -15.6936 -15.5243 -13.9015 -13.7442
   -10.6089 -10.5726  -9.9446  -9.9316  -8.3034  -8.2975  -6.9157  -6.8854
    -5.9315  -5.8205  -5.6123  -5.5441  -4.6799  -4.6699   4.0377   4.1743
     5.1724   5.1947

     occupation numbers 
     1.0000   1.0000   1.0000   1.0000   1.0000   1.0000   1.0000   1.0000
     1.0000   1.0000   1.0000   1.0000   1.0000   1.0000   1.0000   1.0000
     1.0000   1.0000   1.0000   1.0000   1.0000   1.0000   0.0000   0.0000
     0.0000   0.0000

          k = 0.4762 0.0000 0.0000 (339230 PWs)   bands (ev):

   -27.0967 -26.9743 -26.9466 -26.8380 -16.0820 -15.5444 -12.9891 -12.5048
   -11.0775 -10.8021  -9.5963  -9.5456  -9.0417  -8.7850  -7.1318  -7.0183
    -6.3356  -6.2783  -5.9677  -5.7323  -4.9479  -4.9199   3.5587   4.0203
     5.0378   5.5232

     occupation numbers 
     1.0000   1.0000   1.0000   1.0000   1.0000   1.0000   1.0000   1.0000
     1.0000   1.0000   1.0000   1.0000   1.0000   1.0000   1.0000   1.0000
     1.0000   1.0000   1.0000   1.0000   1.0000   1.0000   0.0000   0.0000
     0.0000   0.0000

          k = 0.4762 0.0299 0.0000 (339260 PWs)   bands (ev):

   -27.0958 -26.9753 -26.9452 -26.8383 -16.0733 -15.5368 -13.0303 -12.5470
   -11.0519 -10.7803  -9.6061  -9.5707  -9.0150  -8.7786  -7.1081  -6.9953
    -6.3499  -6.3159  -5.9383  -5.7338  -4.9348  -4.9042   3.5658   4.0258
     5.0301   5.5029

     occupation numbers 
     1.0000   1.0000   1.0000   1.0000   1.0000   1.0000   1.0000   1.0000
     1.0000   1.0000   1.0000   1.0000   1.0000   1.0000   1.0000   1.0000
     1.0000   1.0000   1.0000   1.0000   1.0000   1.0000   0.0000   0.0000
     0.0000   0.0000

          k = 0.4762 0.0597 0.0000 (339266 PWs)   bands (ev):

   -27.0931 -26.9779 -26.9414 -26.8393 -16.0473 -15.5141 -13.1444 -12.6635
   -10.9845 -10.7243  -9.6355  -9.6336  -8.9457  -8.7571  -7.0406  -6.9291
    -6.4009  -6.3916  -5.8751  -5.7339  -4.8986  -4.8630   3.5875   4.0428
     5.0091   5.4477

     occupation numbers 
     1.0000   1.0000   1.0000   1.0000   1.0000   1.0000   1.0000   1.0000
     1.0000   1.0000   1.0000   1.0000   1.0000   1.0000   1.0000   1.0000
     1.0000   1.0000   1.0000   1.0000   1.0000   1.0000   0.0000   0.0000
     0.0000   0.0000

          k = 0.4762 0.0896 0.0000 (339243 PWs)   bands (ev):

   -27.0888 -26.9815 -26.9359 -26.8410 -16.0042 -15.4769 -13.3099 -12.8325
   -10.8959 -10.6548  -9.7140  -9.6831  -8.8515  -8.7157  -6.9388  -6.8273
    -6.5003  -6.4551  -5.8041  -5.7247  -4.8477  -4.8099   3.6247   4.0715
     4.9807   5.3708

     occupation numbers 
     1.0000   1.0000   1.0000   1.0000   1.0000   1.0000   1.0000   1.0000
     1.0000   1.0000   1.0000   1.0000   1.0000   1.0000   1.0000   1.0000
     1.0000   1.0000   1.0000   1.0000   1.0000   1.0000   0.0000   0.0000
     0.0000   0.0000

          k = 0.4762 0.1195 0.0000 (339259 PWs)   bands (ev):

   -27.0830 -26.9857 -26.9293 -26.8435 -15.9443 -15.4262 -13.5045 -13.0326
   -10.8055 -10.5904  -9.7966  -9.7441  -8.7449  -8.6540  -6.8202  -6.7091
    -6.5906  -6.5217  -5.7346  -5.7036  -4.7925  -4.7581   3.6782   4.1111
     4.9530   5.2871

     occupation numbers 
     1.0000   1.0000   1.0000   1.0000   1.0000   1.0000   1.0000   1.0000
     1.0000   1.0000   1.0000   1.0000   1.0000   1.0000   1.0000   1.0000
     1.0000   1.0000   1.0000   1.0000   1.0000   1.0000   0.0000   0.0000
     0.0000   0.0000

          k = 0.4762 0.1494 0.0000 (339270 PWs)   bands (ev):

   -27.0759 -26.9904 -26.9220 -26.8467 -15.8681 -15.3641 -13.7102 -13.2473
   -10.7258 -10.5422  -9.8717  -9.8109  -8.6351  -8.5773  -6.7650  -6.6766
    -6.5919  -6.4886  -5.6741  -5.6706  -4.7424  -4.7171   3.7478   4.1577
     4.9362   5.2098

     occupation numbers 
     1.0000   1.0000   1.0000   1.0000   1.0000   1.0000   1.0000   1.0000
     1.0000   1.0000   1.0000   1.0000   1.0000   1.0000   1.0000   1.0000
     1.0000   1.0000   1.0000   1.0000   1.0000   1.0000   0.0000   0.0000
     0.0000   0.0000

          k = 0.4762 0.1792 0.0000 (339236 PWs)   bands (ev):

   -27.0679 -26.9958 -26.9141 -26.8506 -15.7767 -15.2948 -13.9120 -13.4650
   -10.6624 -10.5144  -9.9328  -9.8755  -8.5307  -8.4949  -6.8228  -6.7472
    -6.4565  -6.3389  -5.6439  -5.6171  -4.7044  -4.6916   3.8313   4.2028
     4.9412   5.1494

     occupation numbers 
     1.0000   1.0000   1.0000   1.0000   1.0000   1.0000   1.0000   1.0000
     1.0000   1.0000   1.0000   1.0000   1.0000   1.0000   1.0000   1.0000
     1.0000   1.0000   1.0000   1.0000   1.0000   1.0000   0.0000   0.0000
     0.0000   0.0000

          k = 0.4762 0.2091 0.0000 (339217 PWs)   bands (ev):

   -27.0592 -27.0017 -26.9059 -26.8554 -15.6714 -15.2262 -14.0942 -13.6770
   -10.6162 -10.5055  -9.9774  -9.9315  -8.4389  -8.4170  -6.8873  -6.8235
    -6.2935  -6.1724  -5.6231  -5.5800  -4.6817  -4.6813   3.9231   4.2352
     4.9757   5.1136

     occupation numbers 
     1.0000   1.0000   1.0000   1.0000   1.0000   1.0000   1.0000   1.0000
     1.0000   1.0000   1.0000   1.0000   1.0000   1.0000   1.0000   1.0000
     1.0000   1.0000   1.0000   1.0000   1.0000   1.0000   0.0000   0.0000
     0.0000   0.0000

          k = 0.4762 0.2390 0.0000 (339209 PWs)   bands (ev):

   -27.0502 -27.0083 -26.8976 -26.8609 -15.5551 -15.1745 -14.2359 -13.8757
   -10.5848 -10.5100 -10.0061  -9.9748  -8.3654  -8.3524  -6.9373  -6.8890
    -6.1290  -6.0103  -5.6226  -5.5668  -4.6814  -4.6736   4.0146   4.2468
     5.0358   5.1062

     occupation numbers 
     1.0000   1.0000   1.0000   1.0000   1.0000   1.0000   1.0000   1.0000
     1.0000   1.0000   1.0000   1.0000   1.0000   1.0000   1.0000   1.0000
     1.0000   1.0000   1.0000   1.0000   1.0000   1.0000   0.0000   0.0000
     0.0000   0.0000

          k = 0.4762 0.2688 0.0000 (339242 PWs)   bands (ev):

   -27.0411 -27.0156 -26.8894 -26.8671 -15.4325 -15.1650 -14.3084 -14.0533
   -10.5638 -10.5214 -10.0218 -10.0044  -8.3140  -8.3070  -6.9684  -6.9384
    -5.9748  -5.8658  -5.6510  -5.5839  -4.6848  -4.6757   4.0960   4.2367
     5.1001   5.1220

     occupation numbers 
     1.0000   1.0000   1.0000   1.0000   1.0000   1.0000   1.0000   1.0000
     1.0000   1.0000   1.0000   1.0000   1.0000   1.0000   1.0000   1.0000
     1.0000   1.0000   1.0000   1.0000   1.0000   1.0000   0.0000   0.0000
     0.0000   0.0000

          k = 0.4762 0.2987 0.0000 (339254 PWs)   bands (ev):

   -27.0321 -27.0236 -26.8815 -26.8740 -15.3133 -15.2155 -14.2920 -14.1983
   -10.5484 -10.5348 -10.0266 -10.0211  -8.2867  -8.2845  -6.9791  -6.9689
    -5.8434  -5.7731  -5.6897  -5.6343  -4.6856  -4.6817   4.1609   4.2077
     5.1402   5.1425

     occupation numbers 
     1.0000   1.0000   1.0000   1.0000   1.0000   1.0000   1.0000   1.0000
     1.0000   1.0000   1.0000   1.0000   1.0000   1.0000   1.0000   1.0000
     1.0000   1.0000   1.0000   1.0000   1.0000   1.0000   0.0000   0.0000
     0.0000   0.0000

     the Fermi energy is    -0.4824 ev

!    total energy              =    -240.24744208 Ry
     estimated scf accuracy    <          2.0E-09 Ry
     smearing contrib. (-TS)   =      -0.00000000 Ry
     internal energy E=F+TS    =    -240.24744208 Ry

     The total energy is F=E-TS. E is the sum of the following terms:
     one-electron contribution =   -1256.48203713 Ry
     hartree contribution      =     642.01118046 Ry
     xc contribution           =     -51.69325811 Ry
     ewald contribution        =     425.91667271 Ry

     convergence has been achieved in  10 iterations

     negative rho (up, down):  1.335E-06 0.000E+00

     Forces acting on atoms (cartesian axes, Ry/au):

     atom    1 type  1   force =     0.00000000   -0.00005000   -0.00000418
     atom    2 type  1   force =     0.00000000   -0.00005000    0.00000418
     atom    3 type  1   force =     0.00000000    0.00005000   -0.00000418
     atom    4 type  1   force =     0.00000000    0.00005000    0.00000418
     atom    5 type  2   force =     0.00000000   -0.00003135   -0.00002708
     atom    6 type  2   force =     0.00000000   -0.00003135    0.00002708
     atom    7 type  2   force =     0.00000000    0.00003135   -0.00002708
     atom    8 type  2   force =     0.00000000    0.00003135    0.00002708
     The non-local contrib.  to forces
     atom    1 type  1   force =     0.00000000   -0.16227307    0.36789740
     atom    2 type  1   force =     0.00000000   -0.16227307   -0.36789740
     atom    3 type  1   force =    -0.00000000    0.16227307    0.36789740
     atom    4 type  1   force =     0.00000000    0.16227307   -0.36789740
     atom    5 type  2   force =     0.00000000   -0.97074079    2.28338760
     atom    6 type  2   force =     0.00000000   -0.97074079   -2.28338760
     atom    7 type  2   force =    -0.00000000    0.97074079    2.28338760
     atom    8 type  2   force =     0.00000000    0.97074079   -2.28338760
     The ionic contribution  to forces
     atom    1 type  1   force =     0.00000000    0.91439883    2.68704709
     atom    2 type  1   force =     0.00000000    0.91439883   -2.68704709
     atom    3 type  1   force =    -0.00000000   -0.91439883    2.68704709
     atom    4 type  1   force =    -0.00000000   -0.91439883   -2.68704709
     atom    5 type  2   force =     0.00000000    4.28250416  -44.49509369
     atom    6 type  2   force =     0.00000000    4.28250416   44.49509369
     atom    7 type  2   force =    -0.00000000   -4.28250416  -44.49509369
     atom    8 type  2   force =     0.00000000   -4.28250416   44.49509369
     The local contribution  to forces
     atom    1 type  1   force =     0.00000000   -0.75314585   -3.05230037
     atom    2 type  1   force =     0.00000000   -0.75314585    3.05230037
     atom    3 type  1   force =    -0.00000000    0.75314585   -3.05230037
     atom    4 type  1   force =    -0.00000000    0.75314585    3.05230037
     atom    5 type  2   force =     0.00000000   -3.31182017   42.21178365
     atom    6 type  2   force =     0.00000000   -3.31182017  -42.21178365
     atom    7 type  2   force =    -0.00000000    3.31182017   42.21178365
     atom    8 type  2   force =    -0.00000000    3.31182017  -42.21178365
     The core correction contribution to forces
     atom    1 type  1   force =     0.00000000    0.00097344   -0.00267343
     atom    2 type  1   force =     0.00000000    0.00097344    0.00267343
     atom    3 type  1   force =    -0.00000000   -0.00097344   -0.00267343
     atom    4 type  1   force =    -0.00000000   -0.00097344    0.00267343
     atom    5 type  2   force =     0.00000000    0.00000000    0.00000000
     atom    6 type  2   force =     0.00000000    0.00000000    0.00000000
     atom    7 type  2   force =     0.00000000    0.00000000    0.00000000
     atom    8 type  2   force =     0.00000000    0.00000000    0.00000000
     The Hubbard contrib.    to forces
     atom    1 type  1   force =     0.00000000    0.00000000    0.00000000
     atom    2 type  1   force =     0.00000000    0.00000000    0.00000000
     atom    3 type  1   force =     0.00000000    0.00000000    0.00000000
     atom    4 type  1   force =     0.00000000    0.00000000    0.00000000
     atom    5 type  2   force =     0.00000000    0.00000000    0.00000000
     atom    6 type  2   force =     0.00000000    0.00000000    0.00000000
     atom    7 type  2   force =     0.00000000    0.00000000    0.00000000
     atom    8 type  2   force =     0.00000000    0.00000000    0.00000000
     The SCF correction term to forces
     atom    1 type  1   force =    -0.00000000   -0.00000334    0.00002513
     atom    2 type  1   force =    -0.00000000   -0.00000334   -0.00002513
     atom    3 type  1   force =    -0.00000000    0.00000334    0.00002513
     atom    4 type  1   force =    -0.00000000    0.00000334   -0.00002513
     atom    5 type  2   force =    -0.00000000    0.00002545   -0.00010465
     atom    6 type  2   force =    -0.00000000    0.00002545    0.00010465
     atom    7 type  2   force =     0.00000000   -0.00002545   -0.00010465
     atom    8 type  2   force =     0.00000000   -0.00002545    0.00010465

     Total force =     0.000130     Total SCF correction =     0.000221
     SCF correction compared to forces is large: reduce conv_thr to get better values


     Computing stress (Cartesian axis) and pressure


     negative rho (up, down):  1.335E-06 0.000E+00
          total   stress  (Ry/bohr**3)                   (kbar)     P=       -0.05
  -0.00000065   0.00000000   0.00000000           -0.10        0.00        0.00
   0.00000000  -0.00000029   0.00000000            0.00       -0.04        0.00
   0.00000000   0.00000000  -0.00000012            0.00        0.00       -0.02

     kinetic stress (kbar)   9135.56      0.00      0.00
                                0.00   8958.54      0.00
                                0.00      0.00   8301.44

     local   stress (kbar)-161108.15      0.00     -0.00
                                0.00-162214.32     -0.00
                               -0.00     -0.00 155410.91

     nonloc. stress (kbar)   1180.26      0.00      0.00
                                0.00   1137.48      0.00
                                0.00      0.00    963.81

     hartree stress (kbar)  80821.34      0.00      0.00
                                0.00  81109.50      0.00
                                0.00      0.00 -74841.86

     exc-cor stress (kbar)  -2141.77      0.00      0.00
                                0.00  -2137.82      0.00
                                0.00      0.00  -2131.14

     corecor stress (kbar)    -73.64     -0.00     -0.00
                               -0.00    -73.49     -0.00
                               -0.00     -0.00    -72.52

     ewald   stress (kbar)  72186.31      0.00      0.00
                                0.00  73220.06      0.00
                                0.00      0.00 -87630.66

     hubbard stress (kbar)      0.00      0.00      0.00
                                0.00      0.00      0.00
                                0.00      0.00      0.00

     DFT-D   stress (kbar)      0.00      0.00      0.00
                                0.00      0.00      0.00
                                0.00      0.00      0.00

     XDM     stress (kbar)      0.00      0.00      0.00
                                0.00      0.00      0.00
                                0.00      0.00      0.00

     dft-nl  stress (kbar)      0.00      0.00      0.00
                                0.00      0.00      0.00
                                0.00      0.00      0.00

     TS-vdW  stress (kbar)      0.00      0.00      0.00
                                0.00      0.00      0.00
                                0.00      0.00      0.00

     MDB     stress (kbar)      0.00      0.00      0.00
                                0.00      0.00      0.00
                                0.00      0.00      0.00

     3D-RISM stress (kbar)      0.00      0.00      0.00
                                0.00      0.00      0.00
                                0.00      0.00      0.00


     Writing all to output data dir ../tmp/fgz.save/

     init_run     :    142.06s CPU    216.24s WALL (       1 calls)
     electrons    :   6551.36s CPU   9764.28s WALL (       1 calls)
     forces       :    117.17s CPU    209.65s WALL (       1 calls)
     stress       :     91.86s CPU    167.09s WALL (       1 calls)

     Called by init_run:
     wfcinit      :    139.60s CPU    213.50s WALL (       1 calls)
     wfcinit:atom :      0.60s CPU      1.03s WALL (     121 calls)
     wfcinit:wfcr :    134.07s CPU    205.54s WALL (     121 calls)
     potinit      :      0.37s CPU      0.38s WALL (       1 calls)
     hinit0       :      0.87s CPU      0.89s WALL (       1 calls)

     Called by electrons:
     c_bands      :   6279.76s CPU   9251.03s WALL (      10 calls)
     sum_band     :    267.74s CPU    507.17s WALL (      10 calls)
     v_of_rho     :      0.71s CPU      0.74s WALL (      11 calls)
     v_h          :      0.05s CPU      0.05s WALL (      11 calls)
     v_xc         :      0.80s CPU      0.83s WALL (      13 calls)
     newd         :      2.66s CPU      4.36s WALL (      11 calls)
     mix_rho      :      0.45s CPU      0.42s WALL (      10 calls)

     Called by c_bands:
     init_us_2    :      4.57s CPU      7.48s WALL (    2783 calls)
     init_us_2:cp :      4.56s CPU      7.47s WALL (    2783 calls)
     cegterg      :   6068.10s CPU   8927.92s WALL (    1210 calls)

     Called by sum_band:
     sum_band:wei :      0.00s CPU      0.00s WALL (      10 calls)
     sum_band:loo :    264.45s CPU    500.80s WALL (      10 calls)
     sum_band:buf :      0.54s CPU      1.36s WALL (    1210 calls)
     sum_band:ini :      1.62s CPU      2.68s WALL (    1210 calls)
     sum_band:cal :    208.99s CPU    430.98s WALL (    1210 calls)
     sum_band:bec :      0.01s CPU      0.02s WALL (    1210 calls)
     addusdens    :      2.17s CPU      5.01s WALL (      10 calls)
     addusd:skk   :      0.01s CPU      0.02s WALL (      20 calls)
     addusd:dgemm :      1.17s CPU      3.17s WALL (      20 calls)
     addusd:qvan2 :      0.95s CPU      1.76s WALL (      20 calls)

     Called by *egterg:
     cdiaghg      :    681.91s CPU    326.55s WALL (    5594 calls)
     cegterg:over :   1666.91s CPU   2465.16s WALL (    4384 calls)
     cegterg:upda :    291.46s CPU    448.47s WALL (    4384 calls)
     cegterg:last :    300.97s CPU    484.72s WALL (    2779 calls)
     h_psi        :   1892.02s CPU   3351.75s WALL (    5715 calls)
     s_psi        :     92.43s CPU    171.28s WALL (    5715 calls)
     g_psi        :      2.25s CPU      1.61s WALL (    4384 calls)

     Called by h_psi:
     h_psi:calbec :   1036.09s CPU   1949.85s WALL (    5715 calls)
     vloc_psi     :    473.26s CPU    496.15s WALL (    5715 calls)
     add_vuspsi   :    380.53s CPU    902.33s WALL (    5715 calls)

     General routines
     calbec       :   1404.76s CPU   2655.06s WALL (    7530 calls)
     fft          :      1.08s CPU      1.14s WALL (     146 calls)
     ffts         :      0.02s CPU      0.03s WALL (      10 calls)
     fftw         :    501.26s CPU    525.28s WALL (  209314 calls)

     Parallel routines

     PWSCF        :      1h55m CPU      2h53m WALL


   This run was terminated on:  12:20:57  20Jan2024            

=------------------------------------------------------------------------------=
   JOB DONE.
=------------------------------------------------------------------------------=
