
     Program BANDS v.7.1 starts on 19Jan2024 at 19:22:39 

     This program is part of the open-source Quantum ESPRESSO suite
     for quantum simulation of materials; please cite
         "P. Giannozzi et al., J. Phys.:Condens. Matter 21 395502 (2009);
         "P. Giannozzi et al., J. Phys.:Condens. Matter 29 465901 (2017);
         "P. Giannozzi et al., J. Chem. Phys. 152 154105 (2020);
          URL http://www.quantum-espresso.org", 
     in publications or presentations arising from this work. More details at
     http://www.quantum-espresso.org/quote

     Parallel version (MPI), running on     8 processors

     MPI processes distributed on     1 nodes
     R & G space division:  proc/nbgrp/npool/nimage =       8
     319735 MiB available memory on the printing compute node when the environment starts


     Reading xml data from directory:

     ../tmp/fgz.save/

     IMPORTANT: XC functional enforced from input :
     Exchange-correlation= PBE
                           (   1   4   3   4   0   0   0)
     Any further DFT definition will be discarded
     Please, verify this is what you really want


     Parallelization info
     --------------------
     sticks:   dense  smooth     PW     G-vecs:    dense   smooth      PW
     Min         861     861    228               236147   236147   32402
     Max         862     862    230               236156   236156   32405
     Sum        6889    6889   1831              1889203  1889203  259231

     Using Slab Decomposition


     negative rho (up, down):  2.271E-06 0.000E+00
     Reading collected, re-writing distributed wavefunctions
     high-symmetry point:  0.5000 0.0000 0.0000   x coordinate   0.0000
     high-symmetry point:  0.0000 0.0000 0.0000   x coordinate   0.5000
     high-symmetry point:  0.0000 0.3136 0.0000   x coordinate   0.8136
     high-symmetry point:  0.5000 0.3136 0.0000   x coordinate   1.3136
     high-symmetry point:  0.5000 0.0000 0.0000   x coordinate   1.6273

     Plottable bands (eV) written to file band.dat.gnu
     Bands written to file band.dat

 **************************************************************************

                    xk=(   0.50000,   0.00000,   0.00000  )

     zone border point and non-symmorphic group 
     symmetry decomposition not available

 **************************************************************************

 **************************************************************************

                    xk=(   0.49000,   0.00000,   0.00000  )

     point group C_2v (mm2) 
     there are  4 classes
     the character table:

       E     C2    s_v   s_v' 
A_1    1.00  1.00  1.00  1.00
A_2    1.00  1.00 -1.00 -1.00
B_1    1.00 -1.00  1.00 -1.00
B_2    1.00 -1.00 -1.00  1.00

     the symmetry operations in each class and the name of the first element:

     E        1
                                                                 
     C2       2
                                                                 
     s_v      4
                                                                 
     s_v'     3
                                                                 

     Band symmetry, C_2v (mm2)  point group:

     e(  1 -  1) =    -27.05927  eV     1   --> A_1  D_1  S_1  
     e(  2 -  2) =    -27.00782  eV     1   --> A_2  D_2  S_2  
     e(  3 -  3) =    -26.91343  eV     1   --> B_1  D_3  S_3  
     e(  4 -  4) =    -26.86775  eV     1   --> B_2  D_4  S_4  
     e(  5 -  5) =    -15.92989  eV     1   --> A_1  D_1  S_1  
     e(  6 -  6) =    -15.70389  eV     1   --> A_2  D_2  S_2  
     e(  7 -  7) =    -12.85184  eV     1   --> B_1  D_3  S_3  
     e(  8 -  8) =    -12.64833  eV     1   --> B_2  D_4  S_4  
     e(  9 -  9) =    -11.00086  eV     1   --> A_2  D_2  S_2  
     e( 10 - 10) =    -10.88477  eV     1   --> A_1  D_1  S_1  
     e( 11 - 11) =     -9.58071  eV     1   --> B_1  D_3  S_3  
     e( 12 - 12) =     -9.55956  eV     1   --> B_2  D_4  S_4  
     e( 13 - 13) =     -8.96779  eV     1   --> A_1  D_1  S_1  
     e( 14 - 14) =     -8.85965  eV     1   --> A_2  D_2  S_2  
     e( 15 - 15) =     -7.10717  eV     1   --> B_1  D_3  S_3  
     e( 16 - 16) =     -7.05942  eV     1   --> B_2  D_4  S_4  
     e( 17 - 17) =     -6.32173  eV     1   --> A_1  D_1  S_1  
     e( 18 - 18) =     -6.29786  eV     1   --> A_2  D_2  S_2  
     e( 19 - 19) =     -5.89998  eV     1   --> B_1  D_3  S_3  
     e( 20 - 20) =     -5.80106  eV     1   --> B_2  D_4  S_4  
     e( 21 - 21) =     -4.94418  eV     1   --> A_2  D_2  S_2  
     e( 22 - 22) =     -4.93254  eV     1   --> A_1  D_1  S_1  
     e( 23 - 23) =      3.68819  eV     1   --> B_1  D_3  S_3  
     e( 24 - 24) =      3.88206  eV     1   --> B_2  D_4  S_4  
     e( 25 - 25) =      5.17124  eV     1   --> A_1  D_1  S_1  
     e( 26 - 26) =      5.37523  eV     1   --> A_2  D_2  S_2  

 **************************************************************************

 **************************************************************************

                    xk=(   0.48000,   0.00000,   0.00000  )

     Band symmetry, C_2v (mm2)  point group:

     e(  1 -  1) =    -27.08614  eV     1   --> A_1  D_1  S_1  
     e(  2 -  2) =    -26.98332  eV     1   --> A_2  D_2  S_2  
     e(  3 -  3) =    -26.93723  eV     1   --> B_1  D_3  S_3  
     e(  4 -  4) =    -26.84595  eV     1   --> B_2  D_4  S_4  
     e(  5 -  5) =    -16.04068  eV     1   --> A_1  D_1  S_1  
     e(  6 -  6) =    -15.58894  eV     1   --> A_2  D_2  S_2  
     e(  7 -  7) =    -12.95171  eV     1   --> B_1  D_3  S_3  
     e(  8 -  8) =    -12.54483  eV     1   --> B_2  D_4  S_4  
     e(  9 -  9) =    -11.05687  eV     1   --> A_2  D_2  S_2  
     e( 10 - 10) =    -10.82523  eV     1   --> A_1  D_1  S_1  
     e( 11 - 11) =     -9.59188  eV     1   --> B_1  D_3  S_3  
     e( 12 - 12) =     -9.54941  eV     1   --> B_2  D_4  S_4  
     e( 13 - 13) =     -9.02138  eV     1   --> A_1  D_1  S_1  
     e( 14 - 14) =     -8.80552  eV     1   --> A_2  D_2  S_2  
     e( 15 - 15) =     -7.12562  eV     1   --> B_1  D_3  S_3  
     e( 16 - 16) =     -7.03026  eV     1   --> B_2  D_4  S_4  
     e( 17 - 17) =     -6.33186  eV     1   --> A_1  D_1  S_1  
     e( 18 - 18) =     -6.28390  eV     1   --> A_2  D_2  S_2  
     e( 19 - 19) =     -5.94904  eV     1   --> B_1  D_3  S_3  
     e( 20 - 20) =     -5.75127  eV     1   --> B_2  D_4  S_4  
     e( 21 - 21) =     -4.94715  eV     1   --> A_2  D_2  S_2  
     e( 22 - 22) =     -4.92375  eV     1   --> A_1  D_1  S_1  
     e( 23 - 23) =      3.59388  eV     1   --> B_1  D_3  S_3  
     e( 24 - 24) =      3.98161  eV     1   --> B_2  D_4  S_4  
     e( 25 - 25) =      5.07381  eV     1   --> A_1  D_1  S_1  
     e( 26 - 26) =      5.48164  eV     1   --> A_2  D_2  S_2  

 **************************************************************************

 **************************************************************************

                    xk=(   0.47000,   0.00000,   0.00000  )

     Band symmetry, C_2v (mm2)  point group:

     e(  1 -  1) =    -27.11373  eV     1   --> A_1  D_1  S_1  
     e(  2 -  2) =    -26.96164  eV     1   --> B_1  D_3  S_3  
     e(  3 -  3) =    -26.95967  eV     1   --> A_2  D_2  S_2  
     e(  4 -  4) =    -26.82487  eV     1   --> B_2  D_4  S_4  
     e(  5 -  5) =    -16.14985  eV     1   --> A_1  D_1  S_1  
     e(  6 -  6) =    -15.47289  eV     1   --> A_2  D_2  S_2  
     e(  7 -  7) =    -13.05024  eV     1   --> B_1  D_3  S_3  
     e(  8 -  8) =    -12.44025  eV     1   --> B_2  D_4  S_4  
     e(  9 -  9) =    -11.11118  eV     1   --> A_2  D_2  S_2  
     e( 10 - 10) =    -10.76511  eV     1   --> A_1  D_1  S_1  
     e( 11 - 11) =     -9.60352  eV     1   --> B_1  D_3  S_3  
     e( 12 - 12) =     -9.53943  eV     1   --> B_2  D_4  S_4  
     e( 13 - 13) =     -9.07430  eV     1   --> A_1  D_1  S_1  
     e( 14 - 14) =     -8.75158  eV     1   --> A_2  D_2  S_2  
     e( 15 - 15) =     -7.14041  eV     1   --> B_1  D_3  S_3  
     e( 16 - 16) =     -6.99768  eV     1   --> B_2  D_4  S_4  
     e( 17 - 17) =     -6.34094  eV     1   --> A_1  D_1  S_1  
     e( 18 - 18) =     -6.26843  eV     1   --> A_2  D_2  S_2  
     e( 19 - 19) =     -5.99775  eV     1   --> B_1  D_3  S_3  
     e( 20 - 20) =     -5.70131  eV     1   --> B_2  D_4  S_4  
     e( 21 - 21) =     -4.94835  eV     1   --> A_2  D_2  S_2  
     e( 22 - 22) =     -4.91292  eV     1   --> A_1  D_1  S_1  
     e( 23 - 23) =      3.50132  eV     1   --> B_1  D_3  S_3  
     e( 24 - 24) =      4.08285  eV     1   --> B_2  D_4  S_4  
     e( 25 - 25) =      4.97951  eV     1   --> A_1  D_1  S_1  
     e( 26 - 26) =      5.59088  eV     1   --> A_2  D_2  S_2  

 **************************************************************************

 **************************************************************************

                    xk=(   0.46000,   0.00000,   0.00000  )

     Band symmetry, C_2v (mm2)  point group:

     e(  1 -  1) =    -27.14199  eV     1   --> A_1  D_1  S_1  
     e(  2 -  2) =    -26.98662  eV     1   --> B_1  D_3  S_3  
     e(  3 -  3) =    -26.93691  eV     1   --> A_2  D_2  S_2  
     e(  4 -  4) =    -26.80455  eV     1   --> B_2  D_4  S_4  
     e(  5 -  5) =    -16.25731  eV     1   --> A_1  D_1  S_1  
     e(  6 -  6) =    -15.35593  eV     1   --> A_2  D_2  S_2  
     e(  7 -  7) =    -13.14739  eV     1   --> B_1  D_3  S_3  
     e(  8 -  8) =    -12.33470  eV     1   --> B_2  D_4  S_4  
     e(  9 -  9) =    -11.16353  eV     1   --> A_2  D_2  S_2  
     e( 10 - 10) =    -10.70477  eV     1   --> A_1  D_1  S_1  
     e( 11 - 11) =     -9.61572  eV     1   --> B_1  D_3  S_3  
     e( 12 - 12) =     -9.52953  eV     1   --> B_2  D_4  S_4  
     e( 13 - 13) =     -9.12624  eV     1   --> A_1  D_1  S_1  
     e( 14 - 14) =     -8.69798  eV     1   --> A_2  D_2  S_2  
     e( 15 - 15) =     -7.15151  eV     1   --> B_1  D_3  S_3  
     e( 16 - 16) =     -6.96179  eV     1   --> B_2  D_4  S_4  
     e( 17 - 17) =     -6.34907  eV     1   --> A_1  D_1  S_1  
     e( 18 - 18) =     -6.25134  eV     1   --> A_2  D_2  S_2  
     e( 19 - 19) =     -6.04605  eV     1   --> B_1  D_3  S_3  
     e( 20 - 20) =     -5.65119  eV     1   --> B_2  D_4  S_4  
     e( 21 - 21) =     -4.94785  eV     1   --> A_2  D_2  S_2  
     e( 22 - 22) =     -4.90001  eV     1   --> A_1  D_1  S_1  
     e( 23 - 23) =      3.41048  eV     1   --> B_1  D_3  S_3  
     e( 24 - 24) =      4.18575  eV     1   --> B_2  D_4  S_4  
     e( 25 - 25) =      4.88840  eV     1   --> A_1  D_1  S_1  
     e( 26 - 26) =      5.70289  eV     1   --> A_2  D_2  S_2  

 **************************************************************************

 **************************************************************************

                    xk=(   0.45000,   0.00000,   0.00000  )

     Band symmetry, C_2v (mm2)  point group:

     e(  1 -  1) =    -27.17086  eV     1   --> A_1  D_1  S_1  
     e(  2 -  2) =    -27.01211  eV     1   --> B_1  D_3  S_3  
     e(  3 -  3) =    -26.91506  eV     1   --> A_2  D_2  S_2  
     e(  4 -  4) =    -26.78499  eV     1   --> B_2  D_4  S_4  
     e(  5 -  5) =    -16.36300  eV     1   --> A_1  D_1  S_1  
     e(  6 -  6) =    -15.23827  eV     1   --> A_2  D_2  S_2  
     e(  7 -  7) =    -13.24311  eV     1   --> B_1  D_3  S_3  
     e(  8 -  8) =    -12.22826  eV     1   --> B_2  D_4  S_4  
     e(  9 -  9) =    -11.21364  eV     1   --> A_2  D_2  S_2  
     e( 10 - 10) =    -10.64463  eV     1   --> A_1  D_1  S_1  
     e( 11 - 11) =     -9.62853  eV     1   --> B_1  D_3  S_3  
     e( 12 - 12) =     -9.51960  eV     1   --> B_2  D_4  S_4  
     e( 13 - 13) =     -9.17680  eV     1   --> A_1  D_1  S_1  
     e( 14 - 14) =     -8.64485  eV     1   --> A_2  D_2  S_2  
     e( 15 - 15) =     -7.15892  eV     1   --> B_1  D_3  S_3  
     e( 16 - 16) =     -6.92270  eV     1   --> B_2  D_4  S_4  
     e( 17 - 17) =     -6.35633  eV     1   --> A_1  D_1  S_1  
     e( 18 - 18) =     -6.23251  eV     1   --> A_2  D_2  S_2  
     e( 19 - 19) =     -6.09385  eV     1   --> B_1  D_3  S_3  
     e( 20 - 20) =     -5.60092  eV     1   --> B_2  D_4  S_4  
     e( 21 - 21) =     -4.94576  eV     1   --> A_2  D_2  S_2  
     e( 22 - 22) =     -4.88504  eV     1   --> A_1  D_1  S_1  
     e( 23 - 23) =      3.32133  eV     1   --> B_1  D_3  S_3  
     e( 24 - 24) =      4.29021  eV     1   --> B_2  D_4  S_4  
     e( 25 - 25) =      4.80056  eV     1   --> A_1  D_1  S_1  
     e( 26 - 26) =      5.81755  eV     1   --> A_2  D_2  S_2  

 **************************************************************************

 **************************************************************************

                    xk=(   0.44000,   0.00000,   0.00000  )

     Band symmetry, C_2v (mm2)  point group:

     e(  1 -  1) =    -27.20031  eV     1   --> A_1  D_1  S_1  
     e(  2 -  2) =    -27.03809  eV     1   --> B_1  D_3  S_3  
     e(  3 -  3) =    -26.89413  eV     1   --> A_2  D_2  S_2  
     e(  4 -  4) =    -26.76621  eV     1   --> B_2  D_4  S_4  
     e(  5 -  5) =    -16.46683  eV     1   --> A_1  D_1  S_1  
     e(  6 -  6) =    -15.12017  eV     1   --> A_2  D_2  S_2  
     e(  7 -  7) =    -13.33734  eV     1   --> B_1  D_3  S_3  
     e(  8 -  8) =    -12.12106  eV     1   --> B_2  D_4  S_4  
     e(  9 -  9) =    -11.26125  eV     1   --> A_2  D_2  S_2  
     e( 10 - 10) =    -10.58522  eV     1   --> A_1  D_1  S_1  
     e( 11 - 11) =     -9.64198  eV     1   --> B_1  D_3  S_3  
     e( 12 - 12) =     -9.50954  eV     1   --> B_2  D_4  S_4  
     e( 13 - 13) =     -9.22548  eV     1   --> A_1  D_1  S_1  
     e( 14 - 14) =     -8.59231  eV     1   --> A_2  D_2  S_2  
     e( 15 - 15) =     -7.16269  eV     1   --> B_1  D_3  S_3  
     e( 16 - 16) =     -6.88053  eV     1   --> B_2  D_4  S_4  
     e( 17 - 17) =     -6.36278  eV     1   --> A_1  D_1  S_1  
     e( 18 - 18) =     -6.21184  eV     1   --> A_2  D_2  S_2  
     e( 19 - 19) =     -6.14106  eV     1   --> B_1  D_3  S_3  
     e( 20 - 20) =     -5.55049  eV     1   --> B_2  D_4  S_4  
     e( 21 - 21) =     -4.94218  eV     1   --> A_2  D_2  S_2  
     e( 22 - 22) =     -4.86800  eV     1   --> A_1  D_1  S_1  
     e( 23 - 23) =      3.23384  eV     1   --> B_1  D_3  S_3  
     e( 24 - 24) =      4.39615  eV     1   --> B_2  D_4  S_4  
     e( 25 - 25) =      4.71604  eV     1   --> A_1  D_1  S_1  
     e( 26 - 26) =      5.93479  eV     1   --> A_2  D_2  S_2  

 **************************************************************************

 **************************************************************************

                    xk=(   0.43000,   0.00000,   0.00000  )

     Band symmetry, C_2v (mm2)  point group:

     e(  1 -  1) =    -27.23027  eV     1   --> A_1  D_1  S_1  
     e(  2 -  2) =    -27.06450  eV     1   --> B_1  D_3  S_3  
     e(  3 -  3) =    -26.87414  eV     1   --> A_2  D_2  S_2  
     e(  4 -  4) =    -26.74824  eV     1   --> B_2  D_4  S_4  
     e(  5 -  5) =    -16.56876  eV     1   --> A_1  D_1  S_1  
     e(  6 -  6) =    -15.00192  eV     1   --> A_2  D_2  S_2  
     e(  7 -  7) =    -13.43005  eV     1   --> B_1  D_3  S_3  
     e(  8 -  8) =    -12.01321  eV     1   --> B_2  D_4  S_4  
     e(  9 -  9) =    -11.30603  eV     1   --> A_2  D_2  S_2  
     e( 10 - 10) =    -10.52720  eV     1   --> A_1  D_1  S_1  
     e( 11 - 11) =     -9.65614  eV     1   --> B_1  D_3  S_3  
     e( 12 - 12) =     -9.49922  eV     1   --> B_2  D_4  S_4  
     e( 13 - 13) =     -9.27167  eV     1   --> A_1  D_1  S_1  
     e( 14 - 14) =     -8.54047  eV     1   --> A_2  D_2  S_2  
     e( 15 - 15) =     -7.16287  eV     1   --> B_1  D_3  S_3  
     e( 16 - 16) =     -6.83543  eV     1   --> B_2  D_4  S_4  
     e( 17 - 17) =     -6.36849  eV     1   --> A_1  D_1  S_1  
     e( 18 - 18) =     -6.18925  eV     1   --> A_2  D_2  S_2  
     e( 19 - 19) =     -6.18755  eV     1   --> B_1  D_3  S_3  
     e( 20 - 20) =     -5.49989  eV     1   --> B_2  D_4  S_4  
     e( 21 - 21) =     -4.93722  eV     1   --> A_2  D_2  S_2  
     e( 22 - 22) =     -4.84896  eV     1   --> A_1  D_1  S_1  
     e( 23 - 23) =      3.14796  eV     1   --> B_1  D_3  S_3  
     e( 24 - 24) =      4.50343  eV     1   --> B_2  D_4  S_4  
     e( 25 - 25) =      4.63493  eV     1   --> A_1  D_1  S_1  
     e( 26 - 26) =      6.05446  eV     1   --> A_2  D_2  S_2  

 **************************************************************************

 **************************************************************************

                    xk=(   0.42000,   0.00000,   0.00000  )

     Band symmetry, C_2v (mm2)  point group:

     e(  1 -  1) =    -27.26069  eV     1   --> A_1  D_1  S_1  
     e(  2 -  2) =    -27.09129  eV     1   --> B_1  D_3  S_3  
     e(  3 -  3) =    -26.85510  eV     1   --> A_2  D_2  S_2  
     e(  4 -  4) =    -26.73107  eV     1   --> B_2  D_4  S_4  
     e(  5 -  5) =    -16.66872  eV     1   --> A_1  D_1  S_1  
     e(  6 -  6) =    -14.88386  eV     1   --> A_2  D_2  S_2  
     e(  7 -  7) =    -13.52119  eV     1   --> B_1  D_3  S_3  
     e(  8 -  8) =    -11.90486  eV     1   --> B_2  D_4  S_4  
     e(  9 -  9) =    -11.34763  eV     1   --> A_2  D_2  S_2  
     e( 10 - 10) =    -10.47139  eV     1   --> A_1  D_1  S_1  
     e( 11 - 11) =     -9.67101  eV     1   --> B_1  D_3  S_3  
     e( 12 - 12) =     -9.48852  eV     1   --> B_2  D_4  S_4  
     e( 13 - 13) =     -9.31457  eV     1   --> A_1  D_1  S_1  
     e( 14 - 14) =     -8.48943  eV     1   --> A_2  D_2  S_2  
     e( 15 - 15) =     -7.15957  eV     1   --> B_1  D_3  S_3  
     e( 16 - 16) =     -6.78754  eV     1   --> B_2  D_4  S_4  
     e( 17 - 17) =     -6.37348  eV     1   --> A_1  D_1  S_1  
     e( 18 - 18) =     -6.23318  eV     1   --> B_1  D_3  S_3  
     e( 19 - 19) =     -6.16463  eV     1   --> A_2  D_2  S_2  
     e( 20 - 20) =     -5.44910  eV     1   --> B_2  D_4  S_4  
     e( 21 - 21) =     -4.93098  eV     1   --> A_2  D_2  S_2  
     e( 22 - 22) =     -4.82797  eV     1   --> A_1  D_1  S_1  
     e( 23 - 23) =      3.06364  eV     1   --> B_1  D_3  S_3  
     e( 24 - 24) =      4.55727  eV     1   --> A_1  D_1  S_1  
     e( 25 - 25) =      4.61188  eV     1   --> B_2  D_4  S_4  
     e( 26 - 26) =      6.17646  eV     1   --> A_2  D_2  S_2  

 **************************************************************************

 **************************************************************************

                    xk=(   0.41000,   0.00000,   0.00000  )

     Band symmetry, C_2v (mm2)  point group:

     e(  1 -  1) =    -27.29152  eV     1   --> A_1  D_1  S_1  
     e(  2 -  2) =    -27.11843  eV     1   --> B_1  D_3  S_3  
     e(  3 -  3) =    -26.83702  eV     1   --> A_2  D_2  S_2  
     e(  4 -  4) =    -26.71472  eV     1   --> B_2  D_4  S_4  
     e(  5 -  5) =    -16.76668  eV     1   --> A_1  D_1  S_1  
     e(  6 -  6) =    -14.76639  eV     1   --> A_2  D_2  S_2  
     e(  7 -  7) =    -13.61072  eV     1   --> B_1  D_3  S_3  
     e(  8 -  8) =    -11.79619  eV     1   --> B_2  D_4  S_4  
     e(  9 -  9) =    -11.38565  eV     1   --> A_2  D_2  S_2  
     e( 10 - 10) =    -10.41883  eV     1   --> A_1  D_1  S_1  
     e( 11 - 11) =     -9.68662  eV     1   --> B_1  D_3  S_3  
     e( 12 - 12) =     -9.47728  eV     1   --> B_2  D_4  S_4  
     e( 13 - 13) =     -9.35318  eV     1   --> A_1  D_1  S_1  
     e( 14 - 14) =     -8.43928  eV     1   --> A_2  D_2  S_2  
     e( 15 - 15) =     -7.15296  eV     1   --> B_1  D_3  S_3  
     e( 16 - 16) =     -6.73705  eV     1   --> B_2  D_4  S_4  
     e( 17 - 17) =     -6.37777  eV     1   --> A_1  D_1  S_1  
     e( 18 - 18) =     -6.27776  eV     1   --> B_1  D_3  S_3  
     e( 19 - 19) =     -6.13793  eV     1   --> A_2  D_2  S_2  
     e( 20 - 20) =     -5.39807  eV     1   --> B_2  D_4  S_4  
     e( 21 - 21) =     -4.92356  eV     1   --> A_2  D_2  S_2  
     e( 22 - 22) =     -4.80512  eV     1   --> A_1  D_1  S_1  
     e( 23 - 23) =      2.98082  eV     1   --> B_1  D_3  S_3  
     e( 24 - 24) =      4.48314  eV     1   --> A_1  D_1  S_1  
     e( 25 - 25) =      4.72130  eV     1   --> B_2  D_4  S_4  
     e( 26 - 26) =      6.30062  eV     1   --> A_2  D_2  S_2  

 **************************************************************************

 **************************************************************************

                    xk=(   0.40000,   0.00000,   0.00000  )

     Band symmetry, C_2v (mm2)  point group:

     e(  1 -  1) =    -27.32270  eV     1   --> A_1  D_1  S_1  
     e(  2 -  2) =    -27.14586  eV     1   --> B_1  D_3  S_3  
     e(  3 -  3) =    -26.81989  eV     1   --> A_2  D_2  S_2  
     e(  4 -  4) =    -26.69920  eV     1   --> B_2  D_4  S_4  
     e(  5 -  5) =    -16.86258  eV     1   --> A_1  D_1  S_1  
     e(  6 -  6) =    -14.64996  eV     1   --> A_2  D_2  S_2  
     e(  7 -  7) =    -13.69861  eV     1   --> B_1  D_3  S_3  
     e(  8 -  8) =    -11.68740  eV     1   --> B_2  D_4  S_4  
     e(  9 -  9) =    -11.41967  eV     1   --> A_2  D_2  S_2  
     e( 10 - 10) =    -10.37082  eV     1   --> A_1  D_1  S_1  
     e( 11 - 11) =     -9.70298  eV     1   --> B_1  D_3  S_3  
     e( 12 - 12) =     -9.46534  eV     1   --> B_2  D_4  S_4  
     e( 13 - 13) =     -9.38626  eV     1   --> A_1  D_1  S_1  
     e( 14 - 14) =     -8.39010  eV     1   --> A_2  D_2  S_2  
     e( 15 - 15) =     -7.14325  eV     1   --> B_1  D_3  S_3  
     e( 16 - 16) =     -6.68412  eV     1   --> B_2  D_4  S_4  
     e( 17 - 17) =     -6.38135  eV     1   --> A_1  D_1  S_1  
     e( 18 - 18) =     -6.32107  eV     1   --> B_1  D_3  S_3  
     e( 19 - 19) =     -6.10908  eV     1   --> A_2  D_2  S_2  
     e( 20 - 20) =     -5.34675  eV     1   --> B_2  D_4  S_4  
     e( 21 - 21) =     -4.91508  eV     1   --> A_2  D_2  S_2  
     e( 22 - 22) =     -4.78053  eV     1   --> A_1  D_1  S_1  
     e( 23 - 23) =      2.89946  eV     1   --> B_1  D_3  S_3  
     e( 24 - 24) =      4.41259  eV     1   --> A_1  D_1  S_1  
     e( 25 - 25) =      4.83140  eV     1   --> B_2  D_4  S_4  
     e( 26 - 26) =      6.42677  eV     1   --> A_2  D_2  S_2  

 **************************************************************************

 **************************************************************************

                    xk=(   0.39000,   0.00000,   0.00000  )

     Band symmetry, C_2v (mm2)  point group:

     e(  1 -  1) =    -27.35416  eV     1   --> A_1  D_1  S_1  
     e(  2 -  2) =    -27.17352  eV     1   --> B_1  D_3  S_3  
     e(  3 -  3) =    -26.80373  eV     1   --> A_2  D_2  S_2  
     e(  4 -  4) =    -26.68449  eV     1   --> B_2  D_4  S_4  
     e(  5 -  5) =    -16.95641  eV     1   --> A_1  D_1  S_1  
     e(  6 -  6) =    -14.53511  eV     1   --> A_2  D_2  S_2  
     e(  7 -  7) =    -13.78482  eV     1   --> B_1  D_3  S_3  
     e(  8 -  8) =    -11.57871  eV     1   --> B_2  D_4  S_4  
     e(  9 -  9) =    -11.44916  eV     1   --> A_2  D_2  S_2  
     e( 10 - 10) =    -10.32890  eV     1   --> A_1  D_1  S_1  
     e( 11 - 11) =     -9.72009  eV     1   --> B_1  D_3  S_3  
     e( 12 - 12) =     -9.45249  eV     1   --> B_2  D_4  S_4  
     e( 13 - 13) =     -9.41231  eV     1   --> A_1  D_1  S_1  
     e( 14 - 14) =     -8.34197  eV     1   --> A_2  D_2  S_2  
     e( 15 - 15) =     -7.13076  eV     1   --> B_1  D_3  S_3  
     e( 16 - 16) =     -6.62897  eV     1   --> B_2  D_4  S_4  
     e( 17 - 17) =     -6.38419  eV     1   --> A_1  D_1  S_1  
     e( 18 - 18) =     -6.36281  eV     1   --> B_1  D_3  S_3  
     e( 19 - 19) =     -6.07804  eV     1   --> A_2  D_2  S_2  
     e( 20 - 20) =     -5.29507  eV     1   --> B_2  D_4  S_4  
     e( 21 - 21) =     -4.90562  eV     1   --> A_2  D_2  S_2  
     e( 22 - 22) =     -4.75433  eV     1   --> A_1  D_1  S_1  
     e( 23 - 23) =      2.81948  eV     1   --> B_1  D_3  S_3  
     e( 24 - 24) =      4.34571  eV     1   --> A_1  D_1  S_1  
     e( 25 - 25) =      4.94187  eV     1   --> B_2  D_4  S_4  
     e( 26 - 26) =      6.55468  eV     1   --> A_2  D_2  S_2  

 **************************************************************************

 **************************************************************************

                    xk=(   0.38000,   0.00000,   0.00000  )

     Band symmetry, C_2v (mm2)  point group:

     e(  1 -  1) =    -27.38584  eV     1   --> A_1  D_1  S_1  
     e(  2 -  2) =    -27.20137  eV     1   --> B_1  D_3  S_3  
     e(  3 -  3) =    -26.78852  eV     1   --> A_2  D_2  S_2  
     e(  4 -  4) =    -26.67060  eV     1   --> B_2  D_4  S_4  
     e(  5 -  5) =    -17.04812  eV     1   --> A_1  D_1  S_1  
     e(  6 -  6) =    -14.42245  eV     1   --> A_2  D_2  S_2  
     e(  7 -  7) =    -13.86931  eV     1   --> B_1  D_3  S_3  
     e(  8 -  8) =    -11.47356  eV     1   --> A_2  D_2  S_2  
     e(  9 -  9) =    -11.47040  eV     1   --> B_2  D_4  S_4  
     e( 10 - 10) =    -10.29476  eV     1   --> A_1  D_1  S_1  
     e( 11 - 11) =     -9.73793  eV     1   --> B_1  D_3  S_3  
     e( 12 - 12) =     -9.43852  eV     1   --> B_2  D_4  S_4  
     e( 13 - 13) =     -9.42972  eV     1   --> A_1  D_1  S_1  
     e( 14 - 14) =     -8.29496  eV     1   --> A_2  D_2  S_2  
     e( 15 - 15) =     -7.11589  eV     1   --> B_1  D_3  S_3  
     e( 16 - 16) =     -6.57181  eV     1   --> B_2  D_4  S_4  
     e( 17 - 17) =     -6.40259  eV     1   --> B_1  D_3  S_3  
     e( 18 - 18) =     -6.38624  eV     1   --> A_1  D_1  S_1  
     e( 19 - 19) =     -6.04478  eV     1   --> A_2  D_2  S_2  
     e( 20 - 20) =     -5.24294  eV     1   --> B_2  D_4  S_4  
     e( 21 - 21) =     -4.89529  eV     1   --> A_2  D_2  S_2  
     e( 22 - 22) =     -4.72669  eV     1   --> A_1  D_1  S_1  
     e( 23 - 23) =      2.74083  eV     1   --> B_1  D_3  S_3  
     e( 24 - 24) =      4.28255  eV     1   --> A_1  D_1  S_1  
     e( 25 - 25) =      5.05225  eV     1   --> B_2  D_4  S_4  
     e( 26 - 26) =      6.68409  eV     1   --> A_2  D_2  S_2  

 **************************************************************************

 **************************************************************************

                    xk=(   0.37000,   0.00000,   0.00000  )

     Band symmetry, C_2v (mm2)  point group:

     e(  1 -  1) =    -27.41768  eV     1   --> A_1  D_1  S_1  
     e(  2 -  2) =    -27.22934  eV     1   --> B_1  D_3  S_3  
     e(  3 -  3) =    -26.77426  eV     1   --> A_2  D_2  S_2  
     e(  4 -  4) =    -26.65752  eV     1   --> B_2  D_4  S_4  
     e(  5 -  5) =    -17.13769  eV     1   --> A_1  D_1  S_1  
     e(  6 -  6) =    -14.31267  eV     1   --> A_2  D_2  S_2  
     e(  7 -  7) =    -13.95205  eV     1   --> B_1  D_3  S_3  
     e(  8 -  8) =    -11.49222  eV     1   --> A_2  D_2  S_2  
     e(  9 -  9) =    -11.36278  eV     1   --> B_2  D_4  S_4  
     e( 10 - 10) =    -10.27001  eV     1   --> A_1  D_1  S_1  
     e( 11 - 11) =     -9.75647  eV     1   --> B_1  D_3  S_3  
     e( 12 - 12) =     -9.43694  eV     1   --> A_1  D_1  S_1  
     e( 13 - 13) =     -9.42315  eV     1   --> B_2  D_4  S_4  
     e( 14 - 14) =     -8.24916  eV     1   --> A_2  D_2  S_2  
     e( 15 - 15) =     -7.09921  eV     1   --> B_1  D_3  S_3  
     e( 16 - 16) =     -6.51289  eV     1   --> B_2  D_4  S_4  
     e( 17 - 17) =     -6.43989  eV     1   --> B_1  D_3  S_3  
     e( 18 - 18) =     -6.38743  eV     1   --> A_1  D_1  S_1  
     e( 19 - 19) =     -6.00927  eV     1   --> A_2  D_2  S_2  
     e( 20 - 20) =     -5.19026  eV     1   --> B_2  D_4  S_4  
     e( 21 - 21) =     -4.88418  eV     1   --> A_2  D_2  S_2  
     e( 22 - 22) =     -4.69778  eV     1   --> A_1  D_1  S_1  
     e( 23 - 23) =      2.66345  eV     1   --> B_1  D_3  S_3  
     e( 24 - 24) =      4.22318  eV     1   --> A_1  D_1  S_1  
     e( 25 - 25) =      5.16199  eV     1   --> B_2  D_4  S_4  
     e( 26 - 26) =      6.81464  eV     1   --> A_2  D_2  S_2  

 **************************************************************************

 **************************************************************************

                    xk=(   0.36000,   0.00000,   0.00000  )

     Band symmetry, C_2v (mm2)  point group:

     e(  1 -  1) =    -27.44962  eV     1   --> A_1  D_1  S_1  
     e(  2 -  2) =    -27.25740  eV     1   --> B_1  D_3  S_3  
     e(  3 -  3) =    -26.76093  eV     1   --> A_2  D_2  S_2  
     e(  4 -  4) =    -26.64524  eV     1   --> B_2  D_4  S_4  
     e(  5 -  5) =    -17.22510  eV     1   --> A_1  D_1  S_1  
     e(  6 -  6) =    -14.20653  eV     1   --> A_2  D_2  S_2  
     e(  7 -  7) =    -14.03300  eV     1   --> B_1  D_3  S_3  
     e(  8 -  8) =    -11.50443  eV     1   --> A_2  D_2  S_2  
     e(  9 -  9) =    -11.25622  eV     1   --> B_2  D_4  S_4  
     e( 10 - 10) =    -10.25579  eV     1   --> A_1  D_1  S_1  
     e( 11 - 11) =     -9.77569  eV     1   --> B_1  D_3  S_3  
     e( 12 - 12) =     -9.43291  eV     1   --> A_1  D_1  S_1  
     e( 13 - 13) =     -9.40608  eV     1   --> B_2  D_4  S_4  
     e( 14 - 14) =     -8.20462  eV     1   --> A_2  D_2  S_2  
     e( 15 - 15) =     -7.08149  eV     1   --> B_1  D_3  S_3  
     e( 16 - 16) =     -6.47401  eV     1   --> B_1  D_3  S_3  
     e( 17 - 17) =     -6.45247  eV     1   --> B_2  D_4  S_4  
     e( 18 - 18) =     -6.38768  eV     1   --> A_1  D_1  S_1  
     e( 19 - 19) =     -5.97151  eV     1   --> A_2  D_2  S_2  
     e( 20 - 20) =     -5.13691  eV     1   --> B_2  D_4  S_4  
     e( 21 - 21) =     -4.87237  eV     1   --> A_2  D_2  S_2  
     e( 22 - 22) =     -4.66780  eV     1   --> A_1  D_1  S_1  
     e( 23 - 23) =      2.58729  eV     1   --> B_1  D_3  S_3  
     e( 24 - 24) =      4.16767  eV     1   --> A_1  D_1  S_1  
     e( 25 - 25) =      5.27035  eV     1   --> B_2  D_4  S_4  
     e( 26 - 26) =      6.94588  eV     1   --> A_2  D_2  S_2  

 **************************************************************************

 **************************************************************************

                    xk=(   0.35000,   0.00000,   0.00000  )

     Band symmetry, C_2v (mm2)  point group:

     e(  1 -  1) =    -27.48159  eV     1   --> A_1  D_1  S_1  
     e(  2 -  2) =    -27.28547  eV     1   --> B_1  D_3  S_3  
     e(  3 -  3) =    -26.74852  eV     1   --> A_2  D_2  S_2  
     e(  4 -  4) =    -26.63375  eV     1   --> B_2  D_4  S_4  
     e(  5 -  5) =    -17.31031  eV     1   --> A_1  D_1  S_1  
     e(  6 -  6) =    -14.11214  eV     1   --> B_1  D_3  S_3  
     e(  7 -  7) =    -14.10488  eV     1   --> A_2  D_2  S_2  
     e(  8 -  8) =    -11.50941  eV     1   --> A_2  D_2  S_2  
     e(  9 -  9) =    -11.15116  eV     1   --> B_2  D_4  S_4  
     e( 10 - 10) =    -10.25244  eV     1   --> A_1  D_1  S_1  
     e( 11 - 11) =     -9.79552  eV     1   --> B_1  D_3  S_3  
     e( 12 - 12) =     -9.41740  eV     1   --> A_1  D_1  S_1  
     e( 13 - 13) =     -9.38696  eV     1   --> B_2  D_4  S_4  
     e( 14 - 14) =     -8.16140  eV     1   --> A_2  D_2  S_2  
     e( 15 - 15) =     -7.06375  eV     1   --> B_1  D_3  S_3  
     e( 16 - 16) =     -6.50399  eV     1   --> B_1  D_3  S_3  
     e( 17 - 17) =     -6.39084  eV     1   --> B_2  D_4  S_4  
     e( 18 - 18) =     -6.38687  eV     1   --> A_1  D_1  S_1  
     e( 19 - 19) =     -5.93152  eV     1   --> A_2  D_2  S_2  
     e( 20 - 20) =     -5.08274  eV     1   --> B_2  D_4  S_4  
     e( 21 - 21) =     -4.85995  eV     1   --> A_2  D_2  S_2  
     e( 22 - 22) =     -4.63697  eV     1   --> A_1  D_1  S_1  
     e( 23 - 23) =      2.51229  eV     1   --> B_1  D_3  S_3  
     e( 24 - 24) =      4.11606  eV     1   --> A_1  D_1  S_1  
     e( 25 - 25) =      5.37635  eV     1   --> B_2  D_4  S_4  
     e( 26 - 26) =      7.00462  eV     1   --> B_2  D_4  S_4  

 **************************************************************************

 **************************************************************************

                    xk=(   0.34000,   0.00000,   0.00000  )

     Band symmetry, C_2v (mm2)  point group:

     e(  1 -  1) =    -27.51353  eV     1   --> A_1  D_1  S_1  
     e(  2 -  2) =    -27.31351  eV     1   --> B_1  D_3  S_3  
     e(  3 -  3) =    -26.73701  eV     1   --> A_2  D_2  S_2  
     e(  4 -  4) =    -26.62304  eV     1   --> B_2  D_4  S_4  
     e(  5 -  5) =    -17.39331  eV     1   --> A_1  D_1  S_1  
     e(  6 -  6) =    -14.18942  eV     1   --> B_1  D_3  S_3  
     e(  7 -  7) =    -14.00859  eV     1   --> A_2  D_2  S_2  
     e(  8 -  8) =    -11.50636  eV     1   --> A_2  D_2  S_2  
     e(  9 -  9) =    -11.04807  eV     1   --> B_2  D_4  S_4  
     e( 10 - 10) =    -10.25933  eV     1   --> A_1  D_1  S_1  
     e( 11 - 11) =     -9.81594  eV     1   --> B_1  D_3  S_3  
     e( 12 - 12) =     -9.39115  eV     1   --> A_1  D_1  S_1  
     e( 13 - 13) =     -9.36536  eV     1   --> B_2  D_4  S_4  
     e( 14 - 14) =     -8.11957  eV     1   --> A_2  D_2  S_2  
     e( 15 - 15) =     -7.04732  eV     1   --> B_1  D_3  S_3  
     e( 16 - 16) =     -6.52860  eV     1   --> B_1  D_3  S_3  
     e( 17 - 17) =     -6.38488  eV     1   --> A_1  D_1  S_1  
     e( 18 - 18) =     -6.32831  eV     1   --> B_2  D_4  S_4  
     e( 19 - 19) =     -5.88931  eV     1   --> A_2  D_2  S_2  
     e( 20 - 20) =     -5.02760  eV     1   --> B_2  D_4  S_4  
     e( 21 - 21) =     -4.84699  eV     1   --> A_2  D_2  S_2  
     e( 22 - 22) =     -4.60549  eV     1   --> A_1  D_1  S_1  
     e( 23 - 23) =      2.43840  eV     1   --> B_1  D_3  S_3  
     e( 24 - 24) =      4.06843  eV     1   --> A_1  D_1  S_1  
     e( 25 - 25) =      5.47863  eV     1   --> B_2  D_4  S_4  
     e( 26 - 26) =      6.96323  eV     1   --> B_2  D_4  S_4  

 **************************************************************************

 **************************************************************************

                    xk=(   0.33000,   0.00000,   0.00000  )

     Band symmetry, C_2v (mm2)  point group:

     e(  1 -  1) =    -27.54536  eV     1   --> A_1  D_1  S_1  
     e(  2 -  2) =    -27.34146  eV     1   --> B_1  D_3  S_3  
     e(  3 -  3) =    -26.72637  eV     1   --> A_2  D_2  S_2  
     e(  4 -  4) =    -26.61309  eV     1   --> B_2  D_4  S_4  
     e(  5 -  5) =    -17.47407  eV     1   --> A_1  D_1  S_1  
     e(  6 -  6) =    -14.26483  eV     1   --> B_1  D_3  S_3  
     e(  7 -  7) =    -13.91857  eV     1   --> A_2  D_2  S_2  
     e(  8 -  8) =    -11.49447  eV     1   --> A_2  D_2  S_2  
     e(  9 -  9) =    -10.94753  eV     1   --> B_2  D_4  S_4  
     e( 10 - 10) =    -10.27513  eV     1   --> A_1  D_1  S_1  
     e( 11 - 11) =     -9.83686  eV     1   --> B_1  D_3  S_3  
     e( 12 - 12) =     -9.35562  eV     1   --> A_1  D_1  S_1  
     e( 13 - 13) =     -9.34081  eV     1   --> B_2  D_4  S_4  
     e( 14 - 14) =     -8.07918  eV     1   --> A_2  D_2  S_2  
     e( 15 - 15) =     -7.03384  eV     1   --> B_1  D_3  S_3  
     e( 16 - 16) =     -6.54631  eV     1   --> B_1  D_3  S_3  
     e( 17 - 17) =     -6.38158  eV     1   --> A_1  D_1  S_1  
     e( 18 - 18) =     -6.26520  eV     1   --> B_2  D_4  S_4  
     e( 19 - 19) =     -5.84492  eV     1   --> A_2  D_2  S_2  
     e( 20 - 20) =     -4.97132  eV     1   --> B_2  D_4  S_4  
     e( 21 - 21) =     -4.83357  eV     1   --> A_2  D_2  S_2  
     e( 22 - 22) =     -4.57361  eV     1   --> A_1  D_1  S_1  
     e( 23 - 23) =      2.36558  eV     1   --> B_1  D_3  S_3  
     e( 24 - 24) =      4.02483  eV     1   --> A_1  D_1  S_1  
     e( 25 - 25) =      5.57535  eV     1   --> B_2  D_4  S_4  
     e( 26 - 26) =      6.92427  eV     1   --> B_2  D_4  S_4  

 **************************************************************************

 **************************************************************************

                    xk=(   0.32000,   0.00000,   0.00000  )

     Band symmetry, C_2v (mm2)  point group:

     e(  1 -  1) =    -27.57704  eV     1   --> A_1  D_1  S_1  
     e(  2 -  2) =    -27.36927  eV     1   --> B_1  D_3  S_3  
     e(  3 -  3) =    -26.71658  eV     1   --> A_2  D_2  S_2  
     e(  4 -  4) =    -26.60388  eV     1   --> B_2  D_4  S_4  
     e(  5 -  5) =    -17.55259  eV     1   --> A_1  D_1  S_1  
     e(  6 -  6) =    -14.33832  eV     1   --> B_1  D_3  S_3  
     e(  7 -  7) =    -13.83568  eV     1   --> A_2  D_2  S_2  
     e(  8 -  8) =    -11.47298  eV     1   --> A_2  D_2  S_2  
     e(  9 -  9) =    -10.85017  eV     1   --> B_2  D_4  S_4  
     e( 10 - 10) =    -10.29816  eV     1   --> A_1  D_1  S_1  
     e( 11 - 11) =     -9.85824  eV     1   --> B_1  D_3  S_3  
     e( 12 - 12) =     -9.31279  eV     1   --> B_2  D_4  S_4  
     e( 13 - 13) =     -9.31263  eV     1   --> A_1  D_1  S_1  
     e( 14 - 14) =     -8.04029  eV     1   --> A_2  D_2  S_2  
     e( 15 - 15) =     -7.02506  eV     1   --> B_1  D_3  S_3  
     e( 16 - 16) =     -6.55550  eV     1   --> B_1  D_3  S_3  
     e( 17 - 17) =     -6.37682  eV     1   --> A_1  D_1  S_1  
     e( 18 - 18) =     -6.20186  eV     1   --> B_2  D_4  S_4  
     e( 19 - 19) =     -5.79841  eV     1   --> A_2  D_2  S_2  
     e( 20 - 20) =     -4.91369  eV     1   --> B_2  D_4  S_4  
     e( 21 - 21) =     -4.81976  eV     1   --> A_2  D_2  S_2  
     e( 22 - 22) =     -4.54157  eV     1   --> A_1  D_1  S_1  
     e( 23 - 23) =      2.29378  eV     1   --> B_1  D_3  S_3  
     e( 24 - 24) =      3.98530  eV     1   --> A_1  D_1  S_1  
     e( 25 - 25) =      5.66395  eV     1   --> B_2  D_4  S_4  
     e( 26 - 26) =      6.88979  eV     1   --> B_2  D_4  S_4  

 **************************************************************************

 **************************************************************************

                    xk=(   0.31000,   0.00000,   0.00000  )

     Band symmetry, C_2v (mm2)  point group:

     e(  1 -  1) =    -27.60849  eV     1   --> A_1  D_1  S_1  
     e(  2 -  2) =    -27.39687  eV     1   --> B_1  D_3  S_3  
     e(  3 -  3) =    -26.70762  eV     1   --> A_2  D_2  S_2  
     e(  4 -  4) =    -26.59538  eV     1   --> B_2  D_4  S_4  
     e(  5 -  5) =    -17.62884  eV     1   --> A_1  D_1  S_1  
     e(  6 -  6) =    -14.40987  eV     1   --> B_1  D_3  S_3  
     e(  7 -  7) =    -13.76065  eV     1   --> A_2  D_2  S_2  
     e(  8 -  8) =    -11.44127  eV     1   --> A_2  D_2  S_2  
     e(  9 -  9) =    -10.75666  eV     1   --> B_2  D_4  S_4  
     e( 10 - 10) =    -10.32674  eV     1   --> A_1  D_1  S_1  
     e( 11 - 11) =     -9.87999  eV     1   --> B_1  D_3  S_3  
     e( 12 - 12) =     -9.28071  eV     1   --> B_2  D_4  S_4  
     e( 13 - 13) =     -9.26399  eV     1   --> A_1  D_1  S_1  
     e( 14 - 14) =     -8.00294  eV     1   --> A_2  D_2  S_2  
     e( 15 - 15) =     -7.02245  eV     1   --> B_1  D_3  S_3  
     e( 16 - 16) =     -6.55483  eV     1   --> B_1  D_3  S_3  
     e( 17 - 17) =     -6.37045  eV     1   --> A_1  D_1  S_1  
     e( 18 - 18) =     -6.13867  eV     1   --> B_2  D_4  S_4  
     e( 19 - 19) =     -5.74983  eV     1   --> A_2  D_2  S_2  
     e( 20 - 20) =     -4.85452  eV     1   --> B_2  D_4  S_4  
     e( 21 - 21) =     -4.80561  eV     1   --> A_2  D_2  S_2  
     e( 22 - 22) =     -4.50962  eV     1   --> A_1  D_1  S_1  
     e( 23 - 23) =      2.22298  eV     1   --> B_1  D_3  S_3  
     e( 24 - 24) =      3.94989  eV     1   --> A_1  D_1  S_1  
     e( 25 - 25) =      5.74102  eV     1   --> B_2  D_4  S_4  
     e( 26 - 26) =      6.86273  eV     1   --> B_2  D_4  S_4  

 **************************************************************************

 **************************************************************************

                    xk=(   0.30000,   0.00000,   0.00000  )

     Band symmetry, C_2v (mm2)  point group:

     e(  1 -  1) =    -27.63964  eV     1   --> A_1  D_1  S_1  
     e(  2 -  2) =    -27.42422  eV     1   --> B_1  D_3  S_3  
     e(  3 -  3) =    -26.69945  eV     1   --> A_2  D_2  S_2  
     e(  4 -  4) =    -26.58758  eV     1   --> B_2  D_4  S_4  
     e(  5 -  5) =    -17.70282  eV     1   --> A_1  D_1  S_1  
     e(  6 -  6) =    -14.47945  eV     1   --> B_1  D_3  S_3  
     e(  7 -  7) =    -13.69407  eV     1   --> A_2  D_2  S_2  
     e(  8 -  8) =    -11.39888  eV     1   --> A_2  D_2  S_2  
     e(  9 -  9) =    -10.66771  eV     1   --> B_2  D_4  S_4  
     e( 10 - 10) =    -10.35941  eV     1   --> A_1  D_1  S_1  
     e( 11 - 11) =     -9.90204  eV     1   --> B_1  D_3  S_3  
     e( 12 - 12) =     -9.24400  eV     1   --> B_2  D_4  S_4  
     e( 13 - 13) =     -9.21133  eV     1   --> A_1  D_1  S_1  
     e( 14 - 14) =     -7.96718  eV     1   --> A_2  D_2  S_2  
     e( 15 - 15) =     -7.02673  eV     1   --> B_1  D_3  S_3  
     e( 16 - 16) =     -6.54373  eV     1   --> B_1  D_3  S_3  
     e( 17 - 17) =     -6.36229  eV     1   --> A_1  D_1  S_1  
     e( 18 - 18) =     -6.07599  eV     1   --> B_2  D_4  S_4  
     e( 19 - 19) =     -5.69926  eV     1   --> A_2  D_2  S_2  
     e( 20 - 20) =     -4.79361  eV     1   --> B_2  D_4  S_4  
     e( 21 - 21) =     -4.79117  eV     1   --> A_2  D_2  S_2  
     e( 22 - 22) =     -4.47798  eV     1   --> A_1  D_1  S_1  
     e( 23 - 23) =      2.15315  eV     1   --> B_1  D_3  S_3  
     e( 24 - 24) =      3.91864  eV     1   --> A_1  D_1  S_1  
     e( 25 - 25) =      5.80226  eV     1   --> B_2  D_4  S_4  
     e( 26 - 26) =      6.84682  eV     1   --> B_2  D_4  S_4  

 **************************************************************************

 **************************************************************************

                    xk=(   0.29000,   0.00000,   0.00000  )

     Band symmetry, C_2v (mm2)  point group:

     e(  1 -  1) =    -27.67045  eV     1   --> A_1  D_1  S_1  
     e(  2 -  2) =    -27.45126  eV     1   --> B_1  D_3  S_3  
     e(  3 -  3) =    -26.69205  eV     1   --> A_2  D_2  S_2  
     e(  4 -  4) =    -26.58045  eV     1   --> B_2  D_4  S_4  
     e(  5 -  5) =    -17.77449  eV     1   --> A_1  D_1  S_1  
     e(  6 -  6) =    -14.54702  eV     1   --> B_1  D_3  S_3  
     e(  7 -  7) =    -13.63626  eV     1   --> A_2  D_2  S_2  
     e(  8 -  8) =    -11.34564  eV     1   --> A_2  D_2  S_2  
     e(  9 -  9) =    -10.58404  eV     1   --> B_2  D_4  S_4  
     e( 10 - 10) =    -10.39497  eV     1   --> A_1  D_1  S_1  
     e( 11 - 11) =     -9.92432  eV     1   --> B_1  D_3  S_3  
     e( 12 - 12) =     -9.20208  eV     1   --> B_2  D_4  S_4  
     e( 13 - 13) =     -9.15603  eV     1   --> A_1  D_1  S_1  
     e( 14 - 14) =     -7.93306  eV     1   --> A_2  D_2  S_2  
     e( 15 - 15) =     -7.03764  eV     1   --> B_1  D_3  S_3  
     e( 16 - 16) =     -6.52263  eV     1   --> B_1  D_3  S_3  
     e( 17 - 17) =     -6.35220  eV     1   --> A_1  D_1  S_1  
     e( 18 - 18) =     -6.01421  eV     1   --> B_2  D_4  S_4  
     e( 19 - 19) =     -5.64680  eV     1   --> A_2  D_2  S_2  
     e( 20 - 20) =     -4.77651  eV     1   --> A_2  D_2  S_2  
     e( 21 - 21) =     -4.73074  eV     1   --> B_2  D_4  S_4  
     e( 22 - 22) =     -4.44692  eV     1   --> A_1  D_1  S_1  
     e( 23 - 23) =      2.08428  eV     1   --> B_1  D_3  S_3  
     e( 24 - 24) =      3.89157  eV     1   --> A_1  D_1  S_1  
     e( 25 - 25) =      5.84303  eV     1   --> B_2  D_4  S_4  
     e( 26 - 26) =      6.75264  eV     1   --> A_1  D_1  S_1  

 **************************************************************************

 **************************************************************************

                    xk=(   0.28000,   0.00000,   0.00000  )

     Band symmetry, C_2v (mm2)  point group:

     e(  1 -  1) =    -27.70083  eV     1   --> A_1  D_1  S_1  
     e(  2 -  2) =    -27.47793  eV     1   --> B_1  D_3  S_3  
     e(  3 -  3) =    -26.68537  eV     1   --> A_2  D_2  S_2  
     e(  4 -  4) =    -26.57395  eV     1   --> B_2  D_4  S_4  
     e(  5 -  5) =    -17.84386  eV     1   --> A_1  D_1  S_1  
     e(  6 -  6) =    -14.61257  eV     1   --> B_1  D_3  S_3  
     e(  7 -  7) =    -13.58729  eV     1   --> A_2  D_2  S_2  
     e(  8 -  8) =    -11.28164  eV     1   --> A_2  D_2  S_2  
     e(  9 -  9) =    -10.50629  eV     1   --> B_2  D_4  S_4  
     e( 10 - 10) =    -10.43247  eV     1   --> A_1  D_1  S_1  
     e( 11 - 11) =     -9.94673  eV     1   --> B_1  D_3  S_3  
     e( 12 - 12) =     -9.15444  eV     1   --> B_2  D_4  S_4  
     e( 13 - 13) =     -9.09920  eV     1   --> A_1  D_1  S_1  
     e( 14 - 14) =     -7.90062  eV     1   --> A_2  D_2  S_2  
     e( 15 - 15) =     -7.05417  eV     1   --> B_1  D_3  S_3  
     e( 16 - 16) =     -6.49270  eV     1   --> B_1  D_3  S_3  
     e( 17 - 17) =     -6.33999  eV     1   --> A_1  D_1  S_1  
     e( 18 - 18) =     -5.95370  eV     1   --> B_2  D_4  S_4  
     e( 19 - 19) =     -5.59257  eV     1   --> A_2  D_2  S_2  
     e( 20 - 20) =     -4.76165  eV     1   --> A_2  D_2  S_2  
     e( 21 - 21) =     -4.66572  eV     1   --> B_2  D_4  S_4  
     e( 22 - 22) =     -4.41668  eV     1   --> A_1  D_1  S_1  
     e( 23 - 23) =      2.01635  eV     1   --> B_1  D_3  S_3  
     e( 24 - 24) =      3.86871  eV     1   --> A_1  D_1  S_1  
     e( 25 - 25) =      5.85965  eV     1   --> B_2  D_4  S_4  
     e( 26 - 26) =      6.63219  eV     1   --> A_1  D_1  S_1  

 **************************************************************************

 **************************************************************************

                    xk=(   0.27000,   0.00000,   0.00000  )

     Band symmetry, C_2v (mm2)  point group:

     e(  1 -  1) =    -27.73075  eV     1   --> A_1  D_1  S_1  
     e(  2 -  2) =    -27.50419  eV     1   --> B_1  D_3  S_3  
     e(  3 -  3) =    -26.67939  eV     1   --> A_2  D_2  S_2  
     e(  4 -  4) =    -26.56807  eV     1   --> B_2  D_4  S_4  
     e(  5 -  5) =    -17.91091  eV     1   --> A_1  D_1  S_1  
     e(  6 -  6) =    -14.67607  eV     1   --> B_1  D_3  S_3  
     e(  7 -  7) =    -13.54693  eV     1   --> A_2  D_2  S_2  
     e(  8 -  8) =    -11.20728  eV     1   --> A_2  D_2  S_2  
     e(  9 -  9) =    -10.47118  eV     1   --> A_1  D_1  S_1  
     e( 10 - 10) =    -10.43500  eV     1   --> B_2  D_4  S_4  
     e( 11 - 11) =     -9.96921  eV     1   --> B_1  D_3  S_3  
     e( 12 - 12) =     -9.10072  eV     1   --> B_2  D_4  S_4  
     e( 13 - 13) =     -9.04176  eV     1   --> A_1  D_1  S_1  
     e( 14 - 14) =     -7.86989  eV     1   --> A_2  D_2  S_2  
     e( 15 - 15) =     -7.07500  eV     1   --> B_1  D_3  S_3  
     e( 16 - 16) =     -6.45547  eV     1   --> B_1  D_3  S_3  
     e( 17 - 17) =     -6.32552  eV     1   --> A_1  D_1  S_1  
     e( 18 - 18) =     -5.89483  eV     1   --> B_2  D_4  S_4  
     e( 19 - 19) =     -5.53668  eV     1   --> A_2  D_2  S_2  
     e( 20 - 20) =     -4.74662  eV     1   --> A_2  D_2  S_2  
     e( 21 - 21) =     -4.59837  eV     1   --> B_2  D_4  S_4  
     e( 22 - 22) =     -4.38748  eV     1   --> A_1  D_1  S_1  
     e( 23 - 23) =      1.94937  eV     1   --> B_1  D_3  S_3  
     e( 24 - 24) =      3.85005  eV     1   --> A_1  D_1  S_1  
     e( 25 - 25) =      5.85084  eV     1   --> B_2  D_4  S_4  
     e( 26 - 26) =      6.51556  eV     1   --> A_1  D_1  S_1  

 **************************************************************************

 **************************************************************************

                    xk=(   0.26000,   0.00000,   0.00000  )

     Band symmetry, C_2v (mm2)  point group:

     e(  1 -  1) =    -27.76012  eV     1   --> A_1  D_1  S_1  
     e(  2 -  2) =    -27.52998  eV     1   --> B_1  D_3  S_3  
     e(  3 -  3) =    -26.67407  eV     1   --> A_2  D_2  S_2  
     e(  4 -  4) =    -26.56278  eV     1   --> B_2  D_4  S_4  
     e(  5 -  5) =    -17.97562  eV     1   --> A_1  D_1  S_1  
     e(  6 -  6) =    -14.73748  eV     1   --> B_1  D_3  S_3  
     e(  7 -  7) =    -13.51471  eV     1   --> A_2  D_2  S_2  
     e(  8 -  8) =    -11.12322  eV     1   --> A_2  D_2  S_2  
     e(  9 -  9) =    -10.51052  eV     1   --> A_1  D_1  S_1  
     e( 10 - 10) =    -10.37049  eV     1   --> B_2  D_4  S_4  
     e( 11 - 11) =     -9.99168  eV     1   --> B_1  D_3  S_3  
     e( 12 - 12) =     -9.04076  eV     1   --> B_2  D_4  S_4  
     e( 13 - 13) =     -8.98447  eV     1   --> A_1  D_1  S_1  
     e( 14 - 14) =     -7.84092  eV     1   --> A_2  D_2  S_2  
     e( 15 - 15) =     -7.09887  eV     1   --> B_1  D_3  S_3  
     e( 16 - 16) =     -6.41238  eV     1   --> B_1  D_3  S_3  
     e( 17 - 17) =     -6.30865  eV     1   --> A_1  D_1  S_1  
     e( 18 - 18) =     -5.83792  eV     1   --> B_2  D_4  S_4  
     e( 19 - 19) =     -5.47928  eV     1   --> A_2  D_2  S_2  
     e( 20 - 20) =     -4.73144  eV     1   --> A_2  D_2  S_2  
     e( 21 - 21) =     -4.52857  eV     1   --> B_2  D_4  S_4  
     e( 22 - 22) =     -4.35955  eV     1   --> A_1  D_1  S_1  
     e( 23 - 23) =      1.88336  eV     1   --> B_1  D_3  S_3  
     e( 24 - 24) =      3.83560  eV     1   --> A_1  D_1  S_1  
     e( 25 - 25) =      5.81812  eV     1   --> B_2  D_4  S_4  
     e( 26 - 26) =      6.40278  eV     1   --> A_1  D_1  S_1  

 **************************************************************************

 **************************************************************************

                    xk=(   0.25000,   0.00000,   0.00000  )

     Band symmetry, C_2v (mm2)  point group:

     e(  1 -  1) =    -27.78890  eV     1   --> A_1  D_1  S_1  
     e(  2 -  2) =    -27.55525  eV     1   --> B_1  D_3  S_3  
     e(  3 -  3) =    -26.66937  eV     1   --> A_2  D_2  S_2  
     e(  4 -  4) =    -26.55803  eV     1   --> B_2  D_4  S_4  
     e(  5 -  5) =    -18.03799  eV     1   --> A_1  D_1  S_1  
     e(  6 -  6) =    -14.79679  eV     1   --> B_1  D_3  S_3  
     e(  7 -  7) =    -13.48997  eV     1   --> A_2  D_2  S_2  
     e(  8 -  8) =    -11.03036  eV     1   --> A_2  D_2  S_2  
     e(  9 -  9) =    -10.55005  eV     1   --> A_1  D_1  S_1  
     e( 10 - 10) =    -10.31292  eV     1   --> B_2  D_4  S_4  
     e( 11 - 11) =    -10.01403  eV     1   --> B_1  D_3  S_3  
     e( 12 - 12) =     -8.97460  eV     1   --> B_2  D_4  S_4  
     e( 13 - 13) =     -8.92793  eV     1   --> A_1  D_1  S_1  
     e( 14 - 14) =     -7.81372  eV     1   --> A_2  D_2  S_2  
     e( 15 - 15) =     -7.12473  eV     1   --> B_1  D_3  S_3  
     e( 16 - 16) =     -6.36469  eV     1   --> B_1  D_3  S_3  
     e( 17 - 17) =     -6.28924  eV     1   --> A_1  D_1  S_1  
     e( 18 - 18) =     -5.78329  eV     1   --> B_2  D_4  S_4  
     e( 19 - 19) =     -5.42055  eV     1   --> A_2  D_2  S_2  
     e( 20 - 20) =     -4.71612  eV     1   --> A_2  D_2  S_2  
     e( 21 - 21) =     -4.45620  eV     1   --> B_2  D_4  S_4  
     e( 22 - 22) =     -4.33311  eV     1   --> A_1  D_1  S_1  
     e( 23 - 23) =      1.81833  eV     1   --> B_1  D_3  S_3  
     e( 24 - 24) =      3.82533  eV     1   --> A_1  D_1  S_1  
     e( 25 - 25) =      5.76479  eV     1   --> B_2  D_4  S_4  
     e( 26 - 26) =      6.29384  eV     1   --> A_1  D_1  S_1  

 **************************************************************************

 **************************************************************************

                    xk=(   0.24000,   0.00000,   0.00000  )

     Band symmetry, C_2v (mm2)  point group:

     e(  1 -  1) =    -27.81703  eV     1   --> A_1  D_1  S_1  
     e(  2 -  2) =    -27.57995  eV     1   --> B_1  D_3  S_3  
     e(  3 -  3) =    -26.66525  eV     1   --> A_2  D_2  S_2  
     e(  4 -  4) =    -26.55381  eV     1   --> B_2  D_4  S_4  
     e(  5 -  5) =    -18.09800  eV     1   --> A_1  D_1  S_1  
     e(  6 -  6) =    -14.85397  eV     1   --> B_1  D_3  S_3  
     e(  7 -  7) =    -13.47193  eV     1   --> A_2  D_2  S_2  
     e(  8 -  8) =    -10.92971  eV     1   --> A_2  D_2  S_2  
     e(  9 -  9) =    -10.58940  eV     1   --> A_1  D_1  S_1  
     e( 10 - 10) =    -10.26216  eV     1   --> B_2  D_4  S_4  
     e( 11 - 11) =    -10.03621  eV     1   --> B_1  D_3  S_3  
     e( 12 - 12) =     -8.90257  eV     1   --> B_2  D_4  S_4  
     e( 13 - 13) =     -8.87267  eV     1   --> A_1  D_1  S_1  
     e( 14 - 14) =     -7.78833  eV     1   --> A_2  D_2  S_2  
     e( 15 - 15) =     -7.15179  eV     1   --> B_1  D_3  S_3  
     e( 16 - 16) =     -6.31342  eV     1   --> B_1  D_3  S_3  
     e( 17 - 17) =     -6.26719  eV     1   --> A_1  D_1  S_1  
     e( 18 - 18) =     -5.73119  eV     1   --> B_2  D_4  S_4  
     e( 19 - 19) =     -5.36069  eV     1   --> A_2  D_2  S_2  
     e( 20 - 20) =     -4.70063  eV     1   --> A_2  D_2  S_2  
     e( 21 - 21) =     -4.38123  eV     1   --> B_2  D_4  S_4  
     e( 22 - 22) =     -4.30836  eV     1   --> A_1  D_1  S_1  
     e( 23 - 23) =      1.75433  eV     1   --> B_1  D_3  S_3  
     e( 24 - 24) =      3.81920  eV     1   --> A_1  D_1  S_1  
     e( 25 - 25) =      5.69454  eV     1   --> B_2  D_4  S_4  
     e( 26 - 26) =      6.18873  eV     1   --> A_1  D_1  S_1  

 **************************************************************************

 **************************************************************************

                    xk=(   0.23000,   0.00000,   0.00000  )

     Band symmetry, C_2v (mm2)  point group:

     e(  1 -  1) =    -27.84445  eV     1   --> A_1  D_1  S_1  
     e(  2 -  2) =    -27.60403  eV     1   --> B_1  D_3  S_3  
     e(  3 -  3) =    -26.66167  eV     1   --> A_2  D_2  S_2  
     e(  4 -  4) =    -26.55007  eV     1   --> B_2  D_4  S_4  
     e(  5 -  5) =    -18.15565  eV     1   --> A_1  D_1  S_1  
     e(  6 -  6) =    -14.90900  eV     1   --> B_1  D_3  S_3  
     e(  7 -  7) =    -13.45974  eV     1   --> A_2  D_2  S_2  
     e(  8 -  8) =    -10.82237  eV     1   --> A_2  D_2  S_2  
     e(  9 -  9) =    -10.62829  eV     1   --> A_1  D_1  S_1  
     e( 10 - 10) =    -10.21792  eV     1   --> B_2  D_4  S_4  
     e( 11 - 11) =    -10.05813  eV     1   --> B_1  D_3  S_3  
     e( 12 - 12) =     -8.82521  eV     1   --> B_2  D_4  S_4  
     e( 13 - 13) =     -8.81912  eV     1   --> A_1  D_1  S_1  
     e( 14 - 14) =     -7.76478  eV     1   --> A_2  D_2  S_2  
     e( 15 - 15) =     -7.17944  eV     1   --> B_1  D_3  S_3  
     e( 16 - 16) =     -6.25940  eV     1   --> B_1  D_3  S_3  
     e( 17 - 17) =     -6.24243  eV     1   --> A_1  D_1  S_1  
     e( 18 - 18) =     -5.68182  eV     1   --> B_2  D_4  S_4  
     e( 19 - 19) =     -5.29992  eV     1   --> A_2  D_2  S_2  
     e( 20 - 20) =     -4.68495  eV     1   --> A_2  D_2  S_2  
     e( 21 - 21) =     -4.30367  eV     1   --> B_2  D_4  S_4  
     e( 22 - 22) =     -4.28547  eV     1   --> A_1  D_1  S_1  
     e( 23 - 23) =      1.69141  eV     1   --> B_1  D_3  S_3  
     e( 24 - 24) =      3.81717  eV     1   --> A_1  D_1  S_1  
     e( 25 - 25) =      5.61059  eV     1   --> B_2  D_4  S_4  
     e( 26 - 26) =      6.08744  eV     1   --> A_1  D_1  S_1  

 **************************************************************************

 **************************************************************************

                    xk=(   0.22000,   0.00000,   0.00000  )

     Band symmetry, C_2v (mm2)  point group:

     e(  1 -  1) =    -27.87111  eV     1   --> A_1  D_1  S_1  
     e(  2 -  2) =    -27.62745  eV     1   --> B_1  D_3  S_3  
     e(  3 -  3) =    -26.65860  eV     1   --> A_2  D_2  S_2  
     e(  4 -  4) =    -26.54679  eV     1   --> B_2  D_4  S_4  
     e(  5 -  5) =    -18.21092  eV     1   --> A_1  D_1  S_1  
     e(  6 -  6) =    -14.96186  eV     1   --> B_1  D_3  S_3  
     e(  7 -  7) =    -13.45256  eV     1   --> A_2  D_2  S_2  
     e(  8 -  8) =    -10.70946  eV     1   --> A_2  D_2  S_2  
     e(  9 -  9) =    -10.66650  eV     1   --> A_1  D_1  S_1  
     e( 10 - 10) =    -10.17972  eV     1   --> B_2  D_4  S_4  
     e( 11 - 11) =    -10.07971  eV     1   --> B_1  D_3  S_3  
     e( 12 - 12) =     -8.76764  eV     1   --> A_1  D_1  S_1  
     e( 13 - 13) =     -8.74321  eV     1   --> B_2  D_4  S_4  
     e( 14 - 14) =     -7.74309  eV     1   --> A_2  D_2  S_2  
     e( 15 - 15) =     -7.20723  eV     1   --> B_1  D_3  S_3  
     e( 16 - 16) =     -6.21492  eV     1   --> A_1  D_1  S_1  
     e( 17 - 17) =     -6.20332  eV     1   --> B_1  D_3  S_3  
     e( 18 - 18) =     -5.63535  eV     1   --> B_2  D_4  S_4  
     e( 19 - 19) =     -5.23851  eV     1   --> A_2  D_2  S_2  
     e( 20 - 20) =     -4.66898  eV     1   --> A_2  D_2  S_2  
     e( 21 - 21) =     -4.26463  eV     1   --> A_1  D_1  S_1  
     e( 22 - 22) =     -4.22360  eV     1   --> B_2  D_4  S_4  
     e( 23 - 23) =      1.62963  eV     1   --> B_1  D_3  S_3  
     e( 24 - 24) =      3.81915  eV     1   --> A_1  D_1  S_1  
     e( 25 - 25) =      5.51553  eV     1   --> B_2  D_4  S_4  
     e( 26 - 26) =      5.98995  eV     1   --> A_1  D_1  S_1  

 **************************************************************************

 **************************************************************************

                    xk=(   0.21000,   0.00000,   0.00000  )

     Band symmetry, C_2v (mm2)  point group:

     e(  1 -  1) =    -27.89696  eV     1   --> A_1  D_1  S_1  
     e(  2 -  2) =    -27.65016  eV     1   --> B_1  D_3  S_3  
     e(  3 -  3) =    -26.65600  eV     1   --> A_2  D_2  S_2  
     e(  4 -  4) =    -26.54394  eV     1   --> B_2  D_4  S_4  
     e(  5 -  5) =    -18.26380  eV     1   --> A_1  D_1  S_1  
     e(  6 -  6) =    -15.01251  eV     1   --> B_1  D_3  S_3  
     e(  7 -  7) =    -13.44958  eV     1   --> A_2  D_2  S_2  
     e(  8 -  8) =    -10.70382  eV     1   --> A_1  D_1  S_1  
     e(  9 -  9) =    -10.59210  eV     1   --> A_2  D_2  S_2  
     e( 10 - 10) =    -10.14699  eV     1   --> B_2  D_4  S_4  
     e( 11 - 11) =    -10.10087  eV     1   --> B_1  D_3  S_3  
     e( 12 - 12) =     -8.71850  eV     1   --> A_1  D_1  S_1  
     e( 13 - 13) =     -8.65742  eV     1   --> B_2  D_4  S_4  
     e( 14 - 14) =     -7.72329  eV     1   --> A_2  D_2  S_2  
     e( 15 - 15) =     -7.23482  eV     1   --> B_1  D_3  S_3  
     e( 16 - 16) =     -6.18466  eV     1   --> A_1  D_1  S_1  
     e( 17 - 17) =     -6.14576  eV     1   --> B_1  D_3  S_3  
     e( 18 - 18) =     -5.59189  eV     1   --> B_2  D_4  S_4  
     e( 19 - 19) =     -5.17681  eV     1   --> A_2  D_2  S_2  
     e( 20 - 20) =     -4.65263  eV     1   --> A_2  D_2  S_2  
     e( 21 - 21) =     -4.24596  eV     1   --> A_1  D_1  S_1  
     e( 22 - 22) =     -4.14117  eV     1   --> B_2  D_4  S_4  
     e( 23 - 23) =      1.56905  eV     1   --> B_1  D_3  S_3  
     e( 24 - 24) =      3.82506  eV     1   --> A_1  D_1  S_1  
     e( 25 - 25) =      5.41139  eV     1   --> B_2  D_4  S_4  
     e( 26 - 26) =      5.89623  eV     1   --> A_1  D_1  S_1  

 **************************************************************************

 **************************************************************************

                    xk=(   0.20000,   0.00000,   0.00000  )

     Band symmetry, C_2v (mm2)  point group:

     e(  1 -  1) =    -27.92195  eV     1   --> A_1  D_1  S_1  
     e(  2 -  2) =    -27.67211  eV     1   --> B_1  D_3  S_3  
     e(  3 -  3) =    -26.65382  eV     1   --> A_2  D_2  S_2  
     e(  4 -  4) =    -26.54147  eV     1   --> B_2  D_4  S_4  
     e(  5 -  5) =    -18.31429  eV     1   --> A_1  D_1  S_1  
     e(  6 -  6) =    -15.06095  eV     1   --> B_1  D_3  S_3  
     e(  7 -  7) =    -13.45008  eV     1   --> A_2  D_2  S_2  
     e(  8 -  8) =    -10.74010  eV     1   --> A_1  D_1  S_1  
     e(  9 -  9) =    -10.47135  eV     1   --> A_2  D_2  S_2  
     e( 10 - 10) =    -10.12155  eV     1   --> B_1  D_3  S_3  
     e( 11 - 11) =    -10.11911  eV     1   --> B_2  D_4  S_4  
     e( 12 - 12) =     -8.67195  eV     1   --> A_1  D_1  S_1  
     e( 13 - 13) =     -8.56873  eV     1   --> B_2  D_4  S_4  
     e( 14 - 14) =     -7.70540  eV     1   --> A_2  D_2  S_2  
     e( 15 - 15) =     -7.26196  eV     1   --> B_1  D_3  S_3  
     e( 16 - 16) =     -6.15171  eV     1   --> A_1  D_1  S_1  
     e( 17 - 17) =     -6.08725  eV     1   --> B_1  D_3  S_3  
     e( 18 - 18) =     -5.55147  eV     1   --> B_2  D_4  S_4  
     e( 19 - 19) =     -5.11522  eV     1   --> A_2  D_2  S_2  
     e( 20 - 20) =     -4.63570  eV     1   --> A_2  D_2  S_2  
     e( 21 - 21) =     -4.22960  eV     1   --> A_1  D_1  S_1  
     e( 22 - 22) =     -4.05659  eV     1   --> B_2  D_4  S_4  
     e( 23 - 23) =      1.50978  eV     1   --> B_1  D_3  S_3  
     e( 24 - 24) =      3.83480  eV     1   --> A_1  D_1  S_1  
     e( 25 - 25) =      5.29979  eV     1   --> B_2  D_4  S_4  
     e( 26 - 26) =      5.80626  eV     1   --> A_1  D_1  S_1  

 **************************************************************************

 **************************************************************************

                    xk=(   0.19000,   0.00000,   0.00000  )

     Band symmetry, C_2v (mm2)  point group:

     e(  1 -  1) =    -27.94602  eV     1   --> A_1  D_1  S_1  
     e(  2 -  2) =    -27.69327  eV     1   --> B_1  D_3  S_3  
     e(  3 -  3) =    -26.65202  eV     1   --> A_2  D_2  S_2  
     e(  4 -  4) =    -26.53937  eV     1   --> B_2  D_4  S_4  
     e(  5 -  5) =    -18.36237  eV     1   --> A_1  D_1  S_1  
     e(  6 -  6) =    -15.10715  eV     1   --> B_1  D_3  S_3  
     e(  7 -  7) =    -13.45337  eV     1   --> A_2  D_2  S_2  
     e(  8 -  8) =    -10.77520  eV     1   --> A_1  D_1  S_1  
     e(  9 -  9) =    -10.34824  eV     1   --> A_2  D_2  S_2  
     e( 10 - 10) =    -10.14168  eV     1   --> B_1  D_3  S_3  
     e( 11 - 11) =    -10.09548  eV     1   --> B_2  D_4  S_4  
     e( 12 - 12) =     -8.62813  eV     1   --> A_1  D_1  S_1  
     e( 13 - 13) =     -8.47803  eV     1   --> B_2  D_4  S_4  
     e( 14 - 14) =     -7.68943  eV     1   --> A_2  D_2  S_2  
     e( 15 - 15) =     -7.28844  eV     1   --> B_1  D_3  S_3  
     e( 16 - 16) =     -6.11616  eV     1   --> A_1  D_1  S_1  
     e( 17 - 17) =     -6.02824  eV     1   --> B_1  D_3  S_3  
     e( 18 - 18) =     -5.51411  eV     1   --> B_2  D_4  S_4  
     e( 19 - 19) =     -5.05424  eV     1   --> A_2  D_2  S_2  
     e( 20 - 20) =     -4.61793  eV     1   --> A_2  D_2  S_2  
     e( 21 - 21) =     -4.21565  eV     1   --> A_1  D_1  S_1  
     e( 22 - 22) =     -3.97013  eV     1   --> B_2  D_4  S_4  
     e( 23 - 23) =      1.45190  eV     1   --> B_1  D_3  S_3  
     e( 24 - 24) =      3.84822  eV     1   --> A_1  D_1  S_1  
     e( 25 - 25) =      5.18213  eV     1   --> B_2  D_4  S_4  
     e( 26 - 26) =      5.71999  eV     1   --> A_1  D_1  S_1  

 **************************************************************************

 **************************************************************************

                    xk=(   0.18000,   0.00000,   0.00000  )

     Band symmetry, C_2v (mm2)  point group:

     e(  1 -  1) =    -27.96915  eV     1   --> A_1  D_1  S_1  
     e(  2 -  2) =    -27.71360  eV     1   --> B_1  D_3  S_3  
     e(  3 -  3) =    -26.65058  eV     1   --> A_2  D_2  S_2  
     e(  4 -  4) =    -26.53759  eV     1   --> B_2  D_4  S_4  
     e(  5 -  5) =    -18.40804  eV     1   --> A_1  D_1  S_1  
     e(  6 -  6) =    -15.15109  eV     1   --> B_1  D_3  S_3  
     e(  7 -  7) =    -13.45886  eV     1   --> A_2  D_2  S_2  
     e(  8 -  8) =    -10.80901  eV     1   --> A_1  D_1  S_1  
     e(  9 -  9) =    -10.22374  eV     1   --> A_2  D_2  S_2  
     e( 10 - 10) =    -10.16118  eV     1   --> B_1  D_3  S_3  
     e( 11 - 11) =    -10.07553  eV     1   --> B_2  D_4  S_4  
     e( 12 - 12) =     -8.58718  eV     1   --> A_1  D_1  S_1  
     e( 13 - 13) =     -8.38623  eV     1   --> B_2  D_4  S_4  
     e( 14 - 14) =     -7.67540  eV     1   --> A_2  D_2  S_2  
     e( 15 - 15) =     -7.31412  eV     1   --> B_1  D_3  S_3  
     e( 16 - 16) =     -6.07817  eV     1   --> A_1  D_1  S_1  
     e( 17 - 17) =     -5.96918  eV     1   --> B_1  D_3  S_3  
     e( 18 - 18) =     -5.47979  eV     1   --> B_2  D_4  S_4  
     e( 19 - 19) =     -4.99453  eV     1   --> A_2  D_2  S_2  
     e( 20 - 20) =     -4.59892  eV     1   --> A_2  D_2  S_2  
     e( 21 - 21) =     -4.20416  eV     1   --> A_1  D_1  S_1  
     e( 22 - 22) =     -3.88215  eV     1   --> B_2  D_4  S_4  
     e( 23 - 23) =      1.39553  eV     1   --> B_1  D_3  S_3  
     e( 24 - 24) =      3.86517  eV     1   --> A_1  D_1  S_1  
     e( 25 - 25) =      5.05964  eV     1   --> B_2  D_4  S_4  
     e( 26 - 26) =      5.63738  eV     1   --> A_1  D_1  S_1  

 **************************************************************************

 **************************************************************************

                    xk=(   0.17000,   0.00000,   0.00000  )

     Band symmetry, C_2v (mm2)  point group:

     e(  1 -  1) =    -27.99127  eV     1   --> A_1  D_1  S_1  
     e(  2 -  2) =    -27.73305  eV     1   --> B_1  D_3  S_3  
     e(  3 -  3) =    -26.64945  eV     1   --> A_2  D_2  S_2  
     e(  4 -  4) =    -26.53611  eV     1   --> B_2  D_4  S_4  
     e(  5 -  5) =    -18.45129  eV     1   --> A_1  D_1  S_1  
     e(  6 -  6) =    -15.19276  eV     1   --> B_1  D_3  S_3  
     e(  7 -  7) =    -13.46606  eV     1   --> A_2  D_2  S_2  
     e(  8 -  8) =    -10.84143  eV     1   --> A_1  D_1  S_1  
     e(  9 -  9) =    -10.17999  eV     1   --> B_1  D_3  S_3  
     e( 10 - 10) =    -10.09878  eV     1   --> A_2  D_2  S_2  
     e( 11 - 11) =    -10.05872  eV     1   --> B_2  D_4  S_4  
     e( 12 - 12) =     -8.54916  eV     1   --> A_1  D_1  S_1  
     e( 13 - 13) =     -8.29417  eV     1   --> B_2  D_4  S_4  
     e( 14 - 14) =     -7.66333  eV     1   --> A_2  D_2  S_2  
     e( 15 - 15) =     -7.33885  eV     1   --> B_1  D_3  S_3  
     e( 16 - 16) =     -6.03796  eV     1   --> A_1  D_1  S_1  
     e( 17 - 17) =     -5.91047  eV     1   --> B_1  D_3  S_3  
     e( 18 - 18) =     -5.44844  eV     1   --> B_2  D_4  S_4  
     e( 19 - 19) =     -4.93690  eV     1   --> A_2  D_2  S_2  
     e( 20 - 20) =     -4.57814  eV     1   --> A_2  D_2  S_2  
     e( 21 - 21) =     -4.19518  eV     1   --> A_1  D_1  S_1  
     e( 22 - 22) =     -3.79303  eV     1   --> B_2  D_4  S_4  
     e( 23 - 23) =      1.34080  eV     1   --> B_1  D_3  S_3  
     e( 24 - 24) =      3.88549  eV     1   --> A_1  D_1  S_1  
     e( 25 - 25) =      4.93350  eV     1   --> B_2  D_4  S_4  
     e( 26 - 26) =      5.55836  eV     1   --> A_1  D_1  S_1  

 **************************************************************************

 **************************************************************************

                    xk=(   0.16000,   0.00000,   0.00000  )

     Band symmetry, C_2v (mm2)  point group:

     e(  1 -  1) =    -28.01236  eV     1   --> A_1  D_1  S_1  
     e(  2 -  2) =    -27.75159  eV     1   --> B_1  D_3  S_3  
     e(  3 -  3) =    -26.64860  eV     1   --> A_2  D_2  S_2  
     e(  4 -  4) =    -26.53489  eV     1   --> B_2  D_4  S_4  
     e(  5 -  5) =    -18.49212  eV     1   --> A_1  D_1  S_1  
     e(  6 -  6) =    -15.23214  eV     1   --> B_1  D_3  S_3  
     e(  7 -  7) =    -13.47450  eV     1   --> A_2  D_2  S_2  
     e(  8 -  8) =    -10.87236  eV     1   --> A_1  D_1  S_1  
     e(  9 -  9) =    -10.19806  eV     1   --> B_1  D_3  S_3  
     e( 10 - 10) =    -10.04460  eV     1   --> B_2  D_4  S_4  
     e( 11 - 11) =     -9.97422  eV     1   --> A_2  D_2  S_2  
     e( 12 - 12) =     -8.51408  eV     1   --> A_1  D_1  S_1  
     e( 13 - 13) =     -8.20265  eV     1   --> B_2  D_4  S_4  
     e( 14 - 14) =     -7.65324  eV     1   --> A_2  D_2  S_2  
     e( 15 - 15) =     -7.36254  eV     1   --> B_1  D_3  S_3  
     e( 16 - 16) =     -5.99578  eV     1   --> A_1  D_1  S_1  
     e( 17 - 17) =     -5.85251  eV     1   --> B_1  D_3  S_3  
     e( 18 - 18) =     -5.41998  eV     1   --> B_2  D_4  S_4  
     e( 19 - 19) =     -4.88238  eV     1   --> A_2  D_2  S_2  
     e( 20 - 20) =     -4.55485  eV     1   --> A_2  D_2  S_2  
     e( 21 - 21) =     -4.18873  eV     1   --> A_1  D_1  S_1  
     e( 22 - 22) =     -3.70324  eV     1   --> B_2  D_4  S_4  
     e( 23 - 23) =      1.28785  eV     1   --> B_1  D_3  S_3  
     e( 24 - 24) =      3.90897  eV     1   --> A_1  D_1  S_1  
     e( 25 - 25) =      4.80485  eV     1   --> B_2  D_4  S_4  
     e( 26 - 26) =      5.39583  eV     1   --> A_2  D_2  S_2  

 **************************************************************************

 **************************************************************************

                    xk=(   0.15000,   0.00000,   0.00000  )

     Band symmetry, C_2v (mm2)  point group:

     e(  1 -  1) =    -28.03236  eV     1   --> A_1  D_1  S_1  
     e(  2 -  2) =    -27.76918  eV     1   --> B_1  D_3  S_3  
     e(  3 -  3) =    -26.64799  eV     1   --> A_2  D_2  S_2  
     e(  4 -  4) =    -26.53391  eV     1   --> B_2  D_4  S_4  
     e(  5 -  5) =    -18.53050  eV     1   --> A_1  D_1  S_1  
     e(  6 -  6) =    -15.26922  eV     1   --> B_1  D_3  S_3  
     e(  7 -  7) =    -13.48380  eV     1   --> A_2  D_2  S_2  
     e(  8 -  8) =    -10.90173  eV     1   --> A_1  D_1  S_1  
     e(  9 -  9) =    -10.21532  eV     1   --> B_1  D_3  S_3  
     e( 10 - 10) =    -10.03276  eV     1   --> B_2  D_4  S_4  
     e( 11 - 11) =     -9.85091  eV     1   --> A_2  D_2  S_2  
     e( 12 - 12) =     -8.48192  eV     1   --> A_1  D_1  S_1  
     e( 13 - 13) =     -8.11245  eV     1   --> B_2  D_4  S_4  
     e( 14 - 14) =     -7.64512  eV     1   --> A_2  D_2  S_2  
     e( 15 - 15) =     -7.38511  eV     1   --> B_1  D_3  S_3  
     e( 16 - 16) =     -5.95196  eV     1   --> A_1  D_1  S_1  
     e( 17 - 17) =     -5.79567  eV     1   --> B_1  D_3  S_3  
     e( 18 - 18) =     -5.39430  eV     1   --> B_2  D_4  S_4  
     e( 19 - 19) =     -4.83216  eV     1   --> A_2  D_2  S_2  
     e( 20 - 20) =     -4.52820  eV     1   --> A_2  D_2  S_2  
     e( 21 - 21) =     -4.18477  eV     1   --> A_1  D_1  S_1  
     e( 22 - 22) =     -3.61326  eV     1   --> B_2  D_4  S_4  
     e( 23 - 23) =      1.23682  eV     1   --> B_1  D_3  S_3  
     e( 24 - 24) =      3.93540  eV     1   --> A_1  D_1  S_1  
     e( 25 - 25) =      4.67483  eV     1   --> B_2  D_4  S_4  
     e( 26 - 26) =      5.17576  eV     1   --> A_2  D_2  S_2  

 **************************************************************************

 **************************************************************************

                    xk=(   0.14000,   0.00000,   0.00000  )

     Band symmetry, C_2v (mm2)  point group:

     e(  1 -  1) =    -28.05125  eV     1   --> A_1  D_1  S_1  
     e(  2 -  2) =    -27.78579  eV     1   --> B_1  D_3  S_3  
     e(  3 -  3) =    -26.64759  eV     1   --> A_2  D_2  S_2  
     e(  4 -  4) =    -26.53314  eV     1   --> B_2  D_4  S_4  
     e(  5 -  5) =    -18.56644  eV     1   --> A_1  D_1  S_1  
     e(  6 -  6) =    -15.30397  eV     1   --> B_1  D_3  S_3  
     e(  7 -  7) =    -13.49364  eV     1   --> A_2  D_2  S_2  
     e(  8 -  8) =    -10.92947  eV     1   --> A_1  D_1  S_1  
     e(  9 -  9) =    -10.23172  eV     1   --> B_1  D_3  S_3  
     e( 10 - 10) =    -10.02286  eV     1   --> B_2  D_4  S_4  
     e( 11 - 11) =     -9.72967  eV     1   --> A_2  D_2  S_2  
     e( 12 - 12) =     -8.45262  eV     1   --> A_1  D_1  S_1  
     e( 13 - 13) =     -8.02428  eV     1   --> B_2  D_4  S_4  
     e( 14 - 14) =     -7.63898  eV     1   --> A_2  D_2  S_2  
     e( 15 - 15) =     -7.40647  eV     1   --> B_1  D_3  S_3  
     e( 16 - 16) =     -5.90686  eV     1   --> A_1  D_1  S_1  
     e( 17 - 17) =     -5.74033  eV     1   --> B_1  D_3  S_3  
     e( 18 - 18) =     -5.37127  eV     1   --> B_2  D_4  S_4  
     e( 19 - 19) =     -4.78740  eV     1   --> A_2  D_2  S_2  
     e( 20 - 20) =     -4.49739  eV     1   --> A_2  D_2  S_2  
     e( 21 - 21) =     -4.18323  eV     1   --> A_1  D_1  S_1  
     e( 22 - 22) =     -3.52366  eV     1   --> B_2  D_4  S_4  
     e( 23 - 23) =      1.18787  eV     1   --> B_1  D_3  S_3  
     e( 24 - 24) =      3.96455  eV     1   --> A_1  D_1  S_1  
     e( 25 - 25) =      4.54461  eV     1   --> B_2  D_4  S_4  
     e( 26 - 26) =      4.96208  eV     1   --> A_2  D_2  S_2  

 **************************************************************************

 **************************************************************************

                    xk=(   0.13000,   0.00000,   0.00000  )

     Band symmetry, C_2v (mm2)  point group:

     e(  1 -  1) =    -28.06899  eV     1   --> A_1  D_1  S_1  
     e(  2 -  2) =    -27.80140  eV     1   --> B_1  D_3  S_3  
     e(  3 -  3) =    -26.64737  eV     1   --> A_2  D_2  S_2  
     e(  4 -  4) =    -26.53254  eV     1   --> B_2  D_4  S_4  
     e(  5 -  5) =    -18.59994  eV     1   --> A_1  D_1  S_1  
     e(  6 -  6) =    -15.33638  eV     1   --> B_1  D_3  S_3  
     e(  7 -  7) =    -13.50373  eV     1   --> A_2  D_2  S_2  
     e(  8 -  8) =    -10.95553  eV     1   --> A_1  D_1  S_1  
     e(  9 -  9) =    -10.24721  eV     1   --> B_1  D_3  S_3  
     e( 10 - 10) =    -10.01460  eV     1   --> B_2  D_4  S_4  
     e( 11 - 11) =     -9.61128  eV     1   --> A_2  D_2  S_2  
     e( 12 - 12) =     -8.42611  eV     1   --> A_1  D_1  S_1  
     e( 13 - 13) =     -7.93883  eV     1   --> B_2  D_4  S_4  
     e( 14 - 14) =     -7.63480  eV     1   --> A_2  D_2  S_2  
     e( 15 - 15) =     -7.42657  eV     1   --> B_1  D_3  S_3  
     e( 16 - 16) =     -5.86092  eV     1   --> A_1  D_1  S_1  
     e( 17 - 17) =     -5.68685  eV     1   --> B_1  D_3  S_3  
     e( 18 - 18) =     -5.35077  eV     1   --> B_2  D_4  S_4  
     e( 19 - 19) =     -4.74892  eV     1   --> A_2  D_2  S_2  
     e( 20 - 20) =     -4.46198  eV     1   --> A_2  D_2  S_2  
     e( 21 - 21) =     -4.18403  eV     1   --> A_1  D_1  S_1  
     e( 22 - 22) =     -3.43506  eV     1   --> B_2  D_4  S_4  
     e( 23 - 23) =      1.14118  eV     1   --> B_1  D_3  S_3  
     e( 24 - 24) =      3.99614  eV     1   --> A_1  D_1  S_1  
     e( 25 - 25) =      4.41537  eV     1   --> B_2  D_4  S_4  
     e( 26 - 26) =      4.75595  eV     1   --> A_2  D_2  S_2  

 **************************************************************************

 **************************************************************************

                    xk=(   0.12000,   0.00000,   0.00000  )

     Band symmetry, C_2v (mm2)  point group:

     e(  1 -  1) =    -28.08554  eV     1   --> A_1  D_1  S_1  
     e(  2 -  2) =    -27.81596  eV     1   --> B_1  D_3  S_3  
     e(  3 -  3) =    -26.64729  eV     1   --> A_2  D_2  S_2  
     e(  4 -  4) =    -26.53210  eV     1   --> B_2  D_4  S_4  
     e(  5 -  5) =    -18.63098  eV     1   --> A_1  D_1  S_1  
     e(  6 -  6) =    -15.36645  eV     1   --> B_1  D_3  S_3  
     e(  7 -  7) =    -13.51384  eV     1   --> A_2  D_2  S_2  
     e(  8 -  8) =    -10.97985  eV     1   --> A_1  D_1  S_1  
     e(  9 -  9) =    -10.26174  eV     1   --> B_1  D_3  S_3  
     e( 10 - 10) =    -10.00773  eV     1   --> B_2  D_4  S_4  
     e( 11 - 11) =     -9.49654  eV     1   --> A_2  D_2  S_2  
     e( 12 - 12) =     -8.40227  eV     1   --> A_1  D_1  S_1  
     e( 13 - 13) =     -7.85674  eV     1   --> B_2  D_4  S_4  
     e( 14 - 14) =     -7.63256  eV     1   --> A_2  D_2  S_2  
     e( 15 - 15) =     -7.44536  eV     1   --> B_1  D_3  S_3  
     e( 16 - 16) =     -5.81459  eV     1   --> A_1  D_1  S_1  
     e( 17 - 17) =     -5.63560  eV     1   --> B_1  D_3  S_3  
     e( 18 - 18) =     -5.33267  eV     1   --> B_2  D_4  S_4  
     e( 19 - 19) =     -4.71690  eV     1   --> A_2  D_2  S_2  
     e( 20 - 20) =     -4.42222  eV     1   --> A_2  D_2  S_2  
     e( 21 - 21) =     -4.18699  eV     1   --> A_1  D_1  S_1  
     e( 22 - 22) =     -3.34810  eV     1   --> B_2  D_4  S_4  
     e( 23 - 23) =      1.09693  eV     1   --> B_1  D_3  S_3  
     e( 24 - 24) =      4.02989  eV     1   --> A_1  D_1  S_1  
     e( 25 - 25) =      4.28833  eV     1   --> B_2  D_4  S_4  
     e( 26 - 26) =      4.55853  eV     1   --> A_2  D_2  S_2  

 **************************************************************************

 **************************************************************************

                    xk=(   0.11000,   0.00000,   0.00000  )

     Band symmetry, C_2v (mm2)  point group:

     e(  1 -  1) =    -28.10088  eV     1   --> A_1  D_1  S_1  
     e(  2 -  2) =    -27.82946  eV     1   --> B_1  D_3  S_3  
     e(  3 -  3) =    -26.64733  eV     1   --> A_2  D_2  S_2  
     e(  4 -  4) =    -26.53179  eV     1   --> B_2  D_4  S_4  
     e(  5 -  5) =    -18.65955  eV     1   --> A_1  D_1  S_1  
     e(  6 -  6) =    -15.39415  eV     1   --> B_1  D_3  S_3  
     e(  7 -  7) =    -13.52375  eV     1   --> A_2  D_2  S_2  
     e(  8 -  8) =    -11.00238  eV     1   --> A_1  D_1  S_1  
     e(  9 -  9) =    -10.27527  eV     1   --> B_1  D_3  S_3  
     e( 10 - 10) =    -10.00203  eV     1   --> B_2  D_4  S_4  
     e( 11 - 11) =     -9.38621  eV     1   --> A_2  D_2  S_2  
     e( 12 - 12) =     -8.38098  eV     1   --> A_1  D_1  S_1  
     e( 13 - 13) =     -7.77862  eV     1   --> B_2  D_4  S_4  
     e( 14 - 14) =     -7.63220  eV     1   --> A_2  D_2  S_2  
     e( 15 - 15) =     -7.46279  eV     1   --> B_1  D_3  S_3  
     e( 16 - 16) =     -5.76839  eV     1   --> A_1  D_1  S_1  
     e( 17 - 17) =     -5.58691  eV     1   --> B_1  D_3  S_3  
     e( 18 - 18) =     -5.31680  eV     1   --> B_2  D_4  S_4  
     e( 19 - 19) =     -4.69084  eV     1   --> A_2  D_2  S_2  
     e( 20 - 20) =     -4.37909  eV     1   --> A_2  D_2  S_2  
     e( 21 - 21) =     -4.19194  eV     1   --> A_1  D_1  S_1  
     e( 22 - 22) =     -3.26352  eV     1   --> B_2  D_4  S_4  
     e( 23 - 23) =      1.05529  eV     1   --> B_1  D_3  S_3  
     e( 24 - 24) =      4.06551  eV     1   --> A_1  D_1  S_1  
     e( 25 - 25) =      4.16474  eV     1   --> B_2  D_4  S_4  
     e( 26 - 26) =      4.37095  eV     1   --> A_2  D_2  S_2  

 **************************************************************************

 **************************************************************************

                    xk=(   0.10000,   0.00000,   0.00000  )

     Band symmetry, C_2v (mm2)  point group:

     e(  1 -  1) =    -28.11498  eV     1   --> A_1  D_1  S_1  
     e(  2 -  2) =    -27.84187  eV     1   --> B_1  D_3  S_3  
     e(  3 -  3) =    -26.64745  eV     1   --> A_2  D_2  S_2  
     e(  4 -  4) =    -26.53159  eV     1   --> B_2  D_4  S_4  
     e(  5 -  5) =    -18.68566  eV     1   --> A_1  D_1  S_1  
     e(  6 -  6) =    -15.41949  eV     1   --> B_1  D_3  S_3  
     e(  7 -  7) =    -13.53328  eV     1   --> A_2  D_2  S_2  
     e(  8 -  8) =    -11.02308  eV     1   --> A_1  D_1  S_1  
     e(  9 -  9) =    -10.28776  eV     1   --> B_1  D_3  S_3  
     e( 10 - 10) =     -9.99731  eV     1   --> B_2  D_4  S_4  
     e( 11 - 11) =     -9.28107  eV     1   --> A_2  D_2  S_2  
     e( 12 - 12) =     -8.36211  eV     1   --> A_1  D_1  S_1  
     e( 13 - 13) =     -7.70506  eV     1   --> B_2  D_4  S_4  
     e( 14 - 14) =     -7.63363  eV     1   --> A_2  D_2  S_2  
     e( 15 - 15) =     -7.47882  eV     1   --> B_1  D_3  S_3  
     e( 16 - 16) =     -5.72289  eV     1   --> A_1  D_1  S_1  
     e( 17 - 17) =     -5.54113  eV     1   --> B_1  D_3  S_3  
     e( 18 - 18) =     -5.30303  eV     1   --> B_2  D_4  S_4  
     e( 19 - 19) =     -4.66982  eV     1   --> A_2  D_2  S_2  
     e( 20 - 20) =     -4.33401  eV     1   --> A_2  D_2  S_2  
     e( 21 - 21) =     -4.19862  eV     1   --> A_1  D_1  S_1  
     e( 22 - 22) =     -3.18207  eV     1   --> B_2  D_4  S_4  
     e( 23 - 23) =      1.01645  eV     1   --> B_1  D_3  S_3  
     e( 24 - 24) =      4.04586  eV     1   --> B_2  D_4  S_4  
     e( 25 - 25) =      4.10264  eV     1   --> A_1  D_1  S_1  
     e( 26 - 26) =      4.19437  eV     1   --> A_2  D_2  S_2  

[...]

 **************************************************************************

                    xk=(   0.17000,   0.31364,   0.00000  )

     zone border point and non-symmorphic group 
     symmetry decomposition not available

 **************************************************************************

 **************************************************************************

                    xk=(   0.18000,   0.31364,   0.00000  )

     zone border point and non-symmorphic group 
     symmetry decomposition not available

 **************************************************************************

 **************************************************************************

                    xk=(   0.19000,   0.31364,   0.00000  )

     zone border point and non-symmorphic group 
     symmetry decomposition not available

 **************************************************************************

 **************************************************************************

                    xk=(   0.20000,   0.31364,   0.00000  )

     zone border point and non-symmorphic group 
     symmetry decomposition not available

 **************************************************************************

 **************************************************************************

                    xk=(   0.21000,   0.31364,   0.00000  )

     zone border point and non-symmorphic group 
     symmetry decomposition not available

 **************************************************************************

 **************************************************************************

                    xk=(   0.22000,   0.31364,   0.00000  )

     zone border point and non-symmorphic group 
     symmetry decomposition not available

 **************************************************************************

 **************************************************************************

                    xk=(   0.23000,   0.31364,   0.00000  )

     zone border point and non-symmorphic group 
     symmetry decomposition not available

 **************************************************************************

 **************************************************************************

                    xk=(   0.24000,   0.31364,   0.00000  )

     zone border point and non-symmorphic group 
     symmetry decomposition not available

 **************************************************************************

 **************************************************************************

                    xk=(   0.25000,   0.31364,   0.00000  )

     zone border point and non-symmorphic group 
     symmetry decomposition not available

 **************************************************************************

 **************************************************************************

                    xk=(   0.26000,   0.31364,   0.00000  )

     zone border point and non-symmorphic group 
     symmetry decomposition not available

 **************************************************************************

 **************************************************************************

                    xk=(   0.27000,   0.31364,   0.00000  )

     zone border point and non-symmorphic group 
     symmetry decomposition not available

 **************************************************************************

 **************************************************************************

                    xk=(   0.28000,   0.31364,   0.00000  )

     zone border point and non-symmorphic group 
     symmetry decomposition not available

 **************************************************************************

 **************************************************************************

                    xk=(   0.29000,   0.31364,   0.00000  )

     zone border point and non-symmorphic group 
     symmetry decomposition not available

 **************************************************************************

 **************************************************************************

                    xk=(   0.30000,   0.31364,   0.00000  )

     zone border point and non-symmorphic group 
     symmetry decomposition not available

 **************************************************************************

 **************************************************************************

                    xk=(   0.31000,   0.31364,   0.00000  )

     zone border point and non-symmorphic group 
     symmetry decomposition not available

 **************************************************************************

 **************************************************************************

                    xk=(   0.32000,   0.31364,   0.00000  )

     zone border point and non-symmorphic group 
     symmetry decomposition not available

 **************************************************************************

 **************************************************************************

                    xk=(   0.33000,   0.31364,   0.00000  )

     zone border point and non-symmorphic group 
     symmetry decomposition not available

 **************************************************************************

 **************************************************************************

                    xk=(   0.34000,   0.31364,   0.00000  )

     zone border point and non-symmorphic group 
     symmetry decomposition not available

 **************************************************************************

 **************************************************************************

                    xk=(   0.35000,   0.31364,   0.00000  )

     zone border point and non-symmorphic group 
     symmetry decomposition not available

 **************************************************************************

 **************************************************************************

                    xk=(   0.36000,   0.31364,   0.00000  )

     zone border point and non-symmorphic group 
     symmetry decomposition not available

 **************************************************************************

 **************************************************************************

                    xk=(   0.37000,   0.31364,   0.00000  )

     zone border point and non-symmorphic group 
     symmetry decomposition not available

 **************************************************************************

 **************************************************************************

                    xk=(   0.38000,   0.31364,   0.00000  )

     zone border point and non-symmorphic group 
     symmetry decomposition not available

 **************************************************************************

 **************************************************************************

                    xk=(   0.39000,   0.31364,   0.00000  )

     zone border point and non-symmorphic group 
     symmetry decomposition not available

 **************************************************************************

 **************************************************************************

                    xk=(   0.40000,   0.31364,   0.00000  )

     zone border point and non-symmorphic group 
     symmetry decomposition not available

 **************************************************************************

 **************************************************************************

                    xk=(   0.41000,   0.31364,   0.00000  )

     zone border point and non-symmorphic group 
     symmetry decomposition not available

 **************************************************************************

 **************************************************************************

                    xk=(   0.42000,   0.31364,   0.00000  )

     zone border point and non-symmorphic group 
     symmetry decomposition not available

 **************************************************************************

 **************************************************************************

                    xk=(   0.43000,   0.31364,   0.00000  )

     zone border point and non-symmorphic group 
     symmetry decomposition not available

 **************************************************************************

 **************************************************************************

                    xk=(   0.44000,   0.31364,   0.00000  )

     zone border point and non-symmorphic group 
     symmetry decomposition not available

 **************************************************************************

 **************************************************************************

                    xk=(   0.45000,   0.31364,   0.00000  )

     zone border point and non-symmorphic group 
     symmetry decomposition not available

 **************************************************************************

 **************************************************************************

                    xk=(   0.46000,   0.31364,   0.00000  )

     zone border point and non-symmorphic group 
     symmetry decomposition not available

 **************************************************************************

 **************************************************************************

                    xk=(   0.47000,   0.31364,   0.00000  )

     zone border point and non-symmorphic group 
     symmetry decomposition not available

 **************************************************************************

 **************************************************************************

                    xk=(   0.48000,   0.31364,   0.00000  )

     zone border point and non-symmorphic group 
     symmetry decomposition not available

 **************************************************************************

 **************************************************************************

                    xk=(   0.49000,   0.31364,   0.00000  )

     zone border point and non-symmorphic group 
     symmetry decomposition not available

 **************************************************************************

 **************************************************************************

                    xk=(   0.50000,   0.31364,   0.00000  )

     zone border point and non-symmorphic group 
     symmetry decomposition not available

 **************************************************************************

 **************************************************************************

                    xk=(   0.50000,   0.30318,   0.00000  )

     zone border point and non-symmorphic group 
     symmetry decomposition not available

 **************************************************************************

 **************************************************************************

                    xk=(   0.50000,   0.29273,   0.00000  )

     zone border point and non-symmorphic group 
     symmetry decomposition not available

 **************************************************************************

 **************************************************************************

                    xk=(   0.50000,   0.28228,   0.00000  )

     zone border point and non-symmorphic group 
     symmetry decomposition not available

 **************************************************************************

 **************************************************************************

                    xk=(   0.50000,   0.27182,   0.00000  )

     zone border point and non-symmorphic group 
     symmetry decomposition not available

 **************************************************************************

 **************************************************************************

                    xk=(   0.50000,   0.26137,   0.00000  )

     zone border point and non-symmorphic group 
     symmetry decomposition not available

 **************************************************************************

 **************************************************************************

                    xk=(   0.50000,   0.25091,   0.00000  )

     zone border point and non-symmorphic group 
     symmetry decomposition not available

 **************************************************************************

 **************************************************************************

                    xk=(   0.50000,   0.24046,   0.00000  )

     zone border point and non-symmorphic group 
     symmetry decomposition not available

 **************************************************************************

 **************************************************************************

                    xk=(   0.50000,   0.23000,   0.00000  )

     zone border point and non-symmorphic group 
     symmetry decomposition not available

 **************************************************************************

 **************************************************************************

                    xk=(   0.50000,   0.21955,   0.00000  )

     zone border point and non-symmorphic group 
     symmetry decomposition not available

 **************************************************************************

 **************************************************************************

                    xk=(   0.50000,   0.20909,   0.00000  )

     zone border point and non-symmorphic group 
     symmetry decomposition not available

 **************************************************************************

 **************************************************************************

                    xk=(   0.50000,   0.19864,   0.00000  )

     zone border point and non-symmorphic group 
     symmetry decomposition not available

 **************************************************************************

 **************************************************************************

                    xk=(   0.50000,   0.18818,   0.00000  )

     zone border point and non-symmorphic group 
     symmetry decomposition not available

 **************************************************************************

 **************************************************************************

                    xk=(   0.50000,   0.17773,   0.00000  )

     zone border point and non-symmorphic group 
     symmetry decomposition not available

 **************************************************************************

 **************************************************************************

                    xk=(   0.50000,   0.16727,   0.00000  )

     zone border point and non-symmorphic group 
     symmetry decomposition not available

 **************************************************************************

 **************************************************************************

                    xk=(   0.50000,   0.15682,   0.00000  )

     zone border point and non-symmorphic group 
     symmetry decomposition not available

 **************************************************************************

 **************************************************************************

                    xk=(   0.50000,   0.14636,   0.00000  )

     zone border point and non-symmorphic group 
     symmetry decomposition not available

 **************************************************************************

 **************************************************************************

                    xk=(   0.50000,   0.13591,   0.00000  )

     zone border point and non-symmorphic group 
     symmetry decomposition not available

 **************************************************************************

 **************************************************************************

                    xk=(   0.50000,   0.12546,   0.00000  )

     zone border point and non-symmorphic group 
     symmetry decomposition not available

 **************************************************************************

 **************************************************************************

                    xk=(   0.50000,   0.11500,   0.00000  )

     zone border point and non-symmorphic group 
     symmetry decomposition not available

 **************************************************************************

 **************************************************************************

                    xk=(   0.50000,   0.10455,   0.00000  )

     zone border point and non-symmorphic group 
     symmetry decomposition not available

 **************************************************************************

 **************************************************************************

                    xk=(   0.50000,   0.09409,   0.00000  )

     zone border point and non-symmorphic group 
     symmetry decomposition not available

 **************************************************************************

 **************************************************************************

                    xk=(   0.50000,   0.08364,   0.00000  )

     zone border point and non-symmorphic group 
     symmetry decomposition not available

 **************************************************************************

 **************************************************************************

                    xk=(   0.50000,   0.07318,   0.00000  )

     zone border point and non-symmorphic group 
     symmetry decomposition not available

 **************************************************************************

 **************************************************************************

                    xk=(   0.50000,   0.06273,   0.00000  )

     zone border point and non-symmorphic group 
     symmetry decomposition not available

 **************************************************************************

 **************************************************************************

                    xk=(   0.50000,   0.05227,   0.00000  )

     zone border point and non-symmorphic group 
     symmetry decomposition not available

 **************************************************************************

 **************************************************************************

                    xk=(   0.50000,   0.04182,   0.00000  )

     zone border point and non-symmorphic group 
     symmetry decomposition not available

 **************************************************************************

 **************************************************************************

                    xk=(   0.50000,   0.03136,   0.00000  )

     zone border point and non-symmorphic group 
     symmetry decomposition not available

 **************************************************************************

 **************************************************************************

                    xk=(   0.50000,   0.02091,   0.00000  )

     zone border point and non-symmorphic group 
     symmetry decomposition not available

 **************************************************************************

 **************************************************************************

                    xk=(   0.50000,   0.01045,   0.00000  )

     zone border point and non-symmorphic group 
     symmetry decomposition not available

 **************************************************************************

 **************************************************************************

                    xk=(   0.50000,   0.00000,   0.00000  )

     zone border point and non-symmorphic group 
     symmetry decomposition not available

 **************************************************************************

     BANDS        :   7m 2.30s CPU   6m38.25s WALL


   This run was terminated on:  19:29:18  19Jan2024            

=------------------------------------------------------------------------------=
   JOB DONE.
=------------------------------------------------------------------------------=
