
     Program PWSCF v.7.1 starts on 19Jan2024 at 15:20:35 

     This program is part of the open-source Quantum ESPRESSO suite
     for quantum simulation of materials; please cite
         "P. Giannozzi et al., J. Phys.:Condens. Matter 21 395502 (2009);
         "P. Giannozzi et al., J. Phys.:Condens. Matter 29 465901 (2017);
         "P. Giannozzi et al., J. Chem. Phys. 152 154105 (2020);
          URL http://www.quantum-espresso.org", 
     in publications or presentations arising from this work. More details at
     http://www.quantum-espresso.org/quote

     Parallel version (MPI), running on    75 processors

     MPI processes distributed on     1 nodes
     348806 MiB available memory on the printing compute node when the environment starts

     Reading input from nscf.in

     Current dimensions of program PWSCF are:
     Max number of different atomic species (ntypx) = 10
     Max number of k-points (npk) =  40000
     Max angular momentum in pseudopotentials (lmaxx) =  4

     Atomic positions and unit cell read from directory:
     ../tmp/fgz.save/
     Atomic positions from file used, from input discarded

     Message from routine setup:
     using ibrav=0 with symmetry is DISCOURAGED, use correct ibrav instead

     R & G space division:  proc/nbgrp/npool/nimage =      75
     Subspace diagonalization in iterative solution of the eigenvalue problem:
     a serial algorithm will be used


     Parallelization info
     --------------------
     sticks:   dense  smooth     PW     G-vecs:    dense   smooth      PW
     Min          91      91     24                25169    25169    3448
     Max          92      92     25                25204    25204    3471
     Sum        6889    6889   1831              1889203  1889203  259231

     Using Slab Decomposition



     bravais-lattice index     =            0
     lattice parameter (alat)  =       4.9702  a.u.
     unit-cell volume          =    1084.4437 (a.u.)^3
     number of atoms/cell      =            8
     number of atomic types    =            2
     number of electrons       =        44.00
     number of Kohn-Sham states=           26
     kinetic-energy cutoff     =     550.0000  Ry
     charge density cutoff     =    2200.0000  Ry
     Exchange-correlation=  SLA  PW   PBX  PBC
                           (   1   4   3   4   0   0   0)

     celldm(1)=   4.970237  celldm(2)=   0.000000  celldm(3)=   0.000000
     celldm(4)=   0.000000  celldm(5)=   0.000000  celldm(6)=   0.000000

     crystal axes: (cart. coord. in units of alat)
               a(1) = (   1.000000   0.000000   0.000000 )  
               a(2) = (   0.000000   1.594189   0.000000 )  
               a(3) = (   0.000000   0.000000   5.540333 )  

     reciprocal axes: (cart. coord. in units 2 pi/alat)
               b(1) = (  1.000000  0.000000  0.000000 )  
               b(2) = (  0.000000  0.627278  0.000000 )  
               b(3) = (  0.000000  0.000000  0.180495 )  


     PseudoPot. # 1 for C  read from file:
     ../pseudo/c_pbe_v1.2.uspp.F.UPF
     MD5 check sum: d1aef80898a10debaa0f26306b886e00
     Pseudo is Ultrasoft + core correction, Zval =  4.0
     Generated by new atomic code, or converted to UPF format
     Using radial grid of  721 points,  4 beta functions with: 
                l(1) =   0
                l(2) =   0
                l(3) =   1
                l(4) =   1
     Q(r) pseudized with  8 coefficients,  rinner =    1.100   1.100   1.100


     PseudoPot. # 2 for F  read from file:
     ../pseudo/f_pbe_v1.4.uspp.F.UPF
     MD5 check sum: 4c38b6a325caf53ec0e86aed9459de46
     Pseudo is Ultrasoft, Zval =  7.0
     Generated by new atomic code, or converted to UPF format
     Using radial grid of  799 points,  4 beta functions with: 
                l(1) =   0
                l(2) =   0
                l(3) =   1
                l(4) =   1
     Q(r) pseudized with  8 coefficients,  rinner =    0.950   0.950   0.950


     atomic species   valence    mass     pseudopotential
        C              4.00    12.01070     C ( 1.00)
        F              7.00    18.99840     F ( 1.00)

      8 Sym. Ops., with inversion, found ( 4 have fractional translation)


                                    s                        frac. trans.

      isym =  1     identity                                     

 cryst.   s( 1) = (     1          0          0      )
                  (     0          1          0      )
                  (     0          0          1      )

 cart.    s( 1) = (  1.0000000  0.0000000  0.0000000 )
                  (  0.0000000  1.0000000  0.0000000 )
                  (  0.0000000  0.0000000  1.0000000 )


      isym =  2     180 deg rotation - cart. axis [0,0,1]        

 cryst.   s( 2) = (    -1          0          0      )    f =(  0.5000000 )
                  (     0         -1          0      )       (  0.5000000 )
                  (     0          0          1      )       (  0.0000000 )

 cart.    s( 2) = ( -1.0000000  0.0000000  0.0000000 )    f =(  0.5000000 )
                  (  0.0000000 -1.0000000  0.0000000 )       (  0.7970945 )
                  (  0.0000000  0.0000000  1.0000000 )       (  0.0000000 )


      isym =  3     180 deg rotation - cart. axis [0,1,0]        

 cryst.   s( 3) = (    -1          0          0      )    f =(  0.5000000 )
                  (     0          1          0      )       ( -0.5000000 )
                  (     0          0         -1      )       (  0.0000000 )

 cart.    s( 3) = ( -1.0000000  0.0000000  0.0000000 )    f =(  0.5000000 )
                  (  0.0000000  1.0000000  0.0000000 )       ( -0.7970945 )
                  (  0.0000000  0.0000000 -1.0000000 )       (  0.0000000 )


      isym =  4     180 deg rotation - cart. axis [1,0,0]        

 cryst.   s( 4) = (     1          0          0      )
                  (     0         -1          0      )
                  (     0          0         -1      )

 cart.    s( 4) = (  1.0000000  0.0000000  0.0000000 )
                  (  0.0000000 -1.0000000  0.0000000 )
                  (  0.0000000  0.0000000 -1.0000000 )


      isym =  5     inversion                                    

 cryst.   s( 5) = (    -1          0          0      )
                  (     0         -1          0      )
                  (     0          0         -1      )

 cart.    s( 5) = ( -1.0000000  0.0000000  0.0000000 )
                  (  0.0000000 -1.0000000  0.0000000 )
                  (  0.0000000  0.0000000 -1.0000000 )


      isym =  6     inv. 180 deg rotation - cart. axis [0,0,1]   

 cryst.   s( 6) = (     1          0          0      )    f =(  0.5000000 )
                  (     0          1          0      )       ( -0.5000000 )
                  (     0          0         -1      )       (  0.0000000 )

 cart.    s( 6) = (  1.0000000  0.0000000  0.0000000 )    f =(  0.5000000 )
                  (  0.0000000  1.0000000  0.0000000 )       ( -0.7970945 )
                  (  0.0000000  0.0000000 -1.0000000 )       (  0.0000000 )


      isym =  7     inv. 180 deg rotation - cart. axis [0,1,0]   

 cryst.   s( 7) = (     1          0          0      )    f =(  0.5000000 )
                  (     0         -1          0      )       (  0.5000000 )
                  (     0          0          1      )       (  0.0000000 )

 cart.    s( 7) = (  1.0000000  0.0000000  0.0000000 )    f =(  0.5000000 )
                  (  0.0000000 -1.0000000  0.0000000 )       (  0.7970945 )
                  (  0.0000000  0.0000000  1.0000000 )       (  0.0000000 )


      isym =  8     inv. 180 deg rotation - cart. axis [1,0,0]   

 cryst.   s( 8) = (    -1          0          0      )
                  (     0          1          0      )
                  (     0          0          1      )

 cart.    s( 8) = ( -1.0000000  0.0000000  0.0000000 )
                  (  0.0000000  1.0000000  0.0000000 )
                  (  0.0000000  0.0000000  1.0000000 )


   Cartesian axes

     site n.     atom                  positions (alat units)
         1           C   tau(   1) = (   0.5000000   0.2256478   0.1937169  )
         2           C   tau(   2) = (   0.0000000   1.0227422  -0.1937169  )
         3           C   tau(   3) = (   0.0000000   0.5714467   0.1937169  )
         4           C   tau(   4) = (   0.5000000   1.3685411  -0.1937169  )
         5           F   tau(   5) = (   0.5000000  -0.0095812  -0.6719762  )
         6           F   tau(   6) = (   0.0000000   0.7875132   0.6719762  )
         7           F   tau(   7) = (   0.0000000   0.8066757  -0.6719762  )
         8           F   tau(   8) = (   0.5000000   0.0095812   0.6719762  )

   Crystallographic axes

     site n.     atom                  positions (cryst. coord.)
         1           C   tau(   1) = (  0.5000000  0.1415439  0.0349649  )
         2           C   tau(   2) = (  0.0000000  0.6415439 -0.0349649  )
         3           C   tau(   3) = (  0.0000000  0.3584561  0.0349649  )
         4           C   tau(   4) = (  0.5000000  0.8584561 -0.0349649  )
         5           F   tau(   5) = (  0.5000000 -0.0060101 -0.1212881  )
         6           F   tau(   6) = (  0.0000000  0.4939899  0.1212881  )
         7           F   tau(   7) = (  0.0000000  0.5060101 -0.1212881  )
         8           F   tau(   8) = (  0.5000000  0.0060101  0.1212881  )

     number of k points=   161  Marzari-Vanderbilt smearing, width (Ry)=  0.0200
                       cart. coord. in units 2pi/alat
        k(    1) = (   0.5000000   0.0000000   0.0000000), wk =   0.0124224
        k(    2) = (   0.4900000   0.0000000   0.0000000), wk =   0.0124224
        k(    3) = (   0.4800000   0.0000000   0.0000000), wk =   0.0124224
        k(    4) = (   0.4700000   0.0000000   0.0000000), wk =   0.0124224
        k(    5) = (   0.4600000   0.0000000   0.0000000), wk =   0.0124224
        k(    6) = (   0.4500000   0.0000000   0.0000000), wk =   0.0124224
        k(    7) = (   0.4400000   0.0000000   0.0000000), wk =   0.0124224
        k(    8) = (   0.4300000   0.0000000   0.0000000), wk =   0.0124224
        k(    9) = (   0.4200000   0.0000000   0.0000000), wk =   0.0124224
        k(   10) = (   0.4100000   0.0000000   0.0000000), wk =   0.0124224
        k(   11) = (   0.4000000   0.0000000   0.0000000), wk =   0.0124224
        k(   12) = (   0.3900000   0.0000000   0.0000000), wk =   0.0124224
        k(   13) = (   0.3800000   0.0000000   0.0000000), wk =   0.0124224
        k(   14) = (   0.3700000   0.0000000   0.0000000), wk =   0.0124224
        k(   15) = (   0.3600000   0.0000000   0.0000000), wk =   0.0124224
        k(   16) = (   0.3500000   0.0000000   0.0000000), wk =   0.0124224
        k(   17) = (   0.3400000   0.0000000   0.0000000), wk =   0.0124224
        k(   18) = (   0.3300000   0.0000000   0.0000000), wk =   0.0124224
        k(   19) = (   0.3200000   0.0000000   0.0000000), wk =   0.0124224
        k(   20) = (   0.3100000   0.0000000   0.0000000), wk =   0.0124224
        k(   21) = (   0.3000000   0.0000000   0.0000000), wk =   0.0124224
        k(   22) = (   0.2900000   0.0000000   0.0000000), wk =   0.0124224
        k(   23) = (   0.2800000   0.0000000   0.0000000), wk =   0.0124224
        k(   24) = (   0.2700000   0.0000000   0.0000000), wk =   0.0124224
        k(   25) = (   0.2600000   0.0000000   0.0000000), wk =   0.0124224
        k(   26) = (   0.2500000   0.0000000   0.0000000), wk =   0.0124224
        k(   27) = (   0.2400000   0.0000000   0.0000000), wk =   0.0124224
        k(   28) = (   0.2300000   0.0000000   0.0000000), wk =   0.0124224
        k(   29) = (   0.2200000   0.0000000   0.0000000), wk =   0.0124224
        k(   30) = (   0.2100000   0.0000000   0.0000000), wk =   0.0124224
        k(   31) = (   0.2000000   0.0000000   0.0000000), wk =   0.0124224
        k(   32) = (   0.1900000   0.0000000   0.0000000), wk =   0.0124224
        k(   33) = (   0.1800000   0.0000000   0.0000000), wk =   0.0124224
        k(   34) = (   0.1700000   0.0000000   0.0000000), wk =   0.0124224
        k(   35) = (   0.1600000   0.0000000   0.0000000), wk =   0.0124224
        k(   36) = (   0.1500000   0.0000000   0.0000000), wk =   0.0124224
        k(   37) = (   0.1400000   0.0000000   0.0000000), wk =   0.0124224
        k(   38) = (   0.1300000   0.0000000   0.0000000), wk =   0.0124224
        k(   39) = (   0.1200000   0.0000000   0.0000000), wk =   0.0124224
        k(   40) = (   0.1100000   0.0000000   0.0000000), wk =   0.0124224
        k(   41) = (   0.1000000   0.0000000   0.0000000), wk =   0.0124224
        k(   42) = (   0.0900000   0.0000000   0.0000000), wk =   0.0124224
        k(   43) = (   0.0800000   0.0000000   0.0000000), wk =   0.0124224
        k(   44) = (   0.0700000   0.0000000   0.0000000), wk =   0.0124224
        k(   45) = (   0.0600000   0.0000000   0.0000000), wk =   0.0124224
        k(   46) = (   0.0500000   0.0000000   0.0000000), wk =   0.0124224
        k(   47) = (   0.0400000   0.0000000   0.0000000), wk =   0.0124224
        k(   48) = (   0.0300000   0.0000000   0.0000000), wk =   0.0124224
        k(   49) = (   0.0200000   0.0000000   0.0000000), wk =   0.0124224
        k(   50) = (   0.0100000   0.0000000   0.0000000), wk =   0.0124224
        k(   51) = (   0.0000000   0.0000000   0.0000000), wk =   0.0124224
        k(   52) = (   0.0000000   0.0104546   0.0000000), wk =   0.0124224
        k(   53) = (   0.0000000   0.0209093   0.0000000), wk =   0.0124224
        k(   54) = (   0.0000000   0.0313639   0.0000000), wk =   0.0124224
        k(   55) = (   0.0000000   0.0418185   0.0000000), wk =   0.0124224
        k(   56) = (   0.0000000   0.0522732   0.0000000), wk =   0.0124224
        k(   57) = (   0.0000000   0.0627278   0.0000000), wk =   0.0124224
        k(   58) = (   0.0000000   0.0731825   0.0000000), wk =   0.0124224
        k(   59) = (   0.0000000   0.0836371   0.0000000), wk =   0.0124224
        k(   60) = (   0.0000000   0.0940917   0.0000000), wk =   0.0124224
        k(   61) = (   0.0000000   0.1045464   0.0000000), wk =   0.0124224
        k(   62) = (   0.0000000   0.1150010   0.0000000), wk =   0.0124224
        k(   63) = (   0.0000000   0.1254556   0.0000000), wk =   0.0124224
        k(   64) = (   0.0000000   0.1359103   0.0000000), wk =   0.0124224
        k(   65) = (   0.0000000   0.1463649   0.0000000), wk =   0.0124224
        k(   66) = (   0.0000000   0.1568196   0.0000000), wk =   0.0124224
        k(   67) = (   0.0000000   0.1672742   0.0000000), wk =   0.0124224
        k(   68) = (   0.0000000   0.1777288   0.0000000), wk =   0.0124224
        k(   69) = (   0.0000000   0.1881835   0.0000000), wk =   0.0124224
        k(   70) = (   0.0000000   0.1986381   0.0000000), wk =   0.0124224
        k(   71) = (   0.0000000   0.2090927   0.0000000), wk =   0.0124224
        k(   72) = (   0.0000000   0.2195474   0.0000000), wk =   0.0124224
        k(   73) = (   0.0000000   0.2300020   0.0000000), wk =   0.0124224
        k(   74) = (   0.0000000   0.2404567   0.0000000), wk =   0.0124224
        k(   75) = (   0.0000000   0.2509113   0.0000000), wk =   0.0124224
        k(   76) = (   0.0000000   0.2613659   0.0000000), wk =   0.0124224
        k(   77) = (   0.0000000   0.2718206   0.0000000), wk =   0.0124224
        k(   78) = (   0.0000000   0.2822752   0.0000000), wk =   0.0124224
        k(   79) = (   0.0000000   0.2927298   0.0000000), wk =   0.0124224
        k(   80) = (   0.0000000   0.3031845   0.0000000), wk =   0.0124224
        k(   81) = (   0.0000000   0.3136391   0.0000000), wk =   0.0124224
        k(   82) = (   0.0100000   0.3136391   0.0000000), wk =   0.0124224
        k(   83) = (   0.0200000   0.3136391   0.0000000), wk =   0.0124224
        k(   84) = (   0.0300000   0.3136391   0.0000000), wk =   0.0124224
        k(   85) = (   0.0400000   0.3136391   0.0000000), wk =   0.0124224
        k(   86) = (   0.0500000   0.3136391   0.0000000), wk =   0.0124224
        k(   87) = (   0.0600000   0.3136391   0.0000000), wk =   0.0124224
        k(   88) = (   0.0700000   0.3136391   0.0000000), wk =   0.0124224
        k(   89) = (   0.0800000   0.3136391   0.0000000), wk =   0.0124224
        k(   90) = (   0.0900000   0.3136391   0.0000000), wk =   0.0124224
        k(   91) = (   0.1000000   0.3136391   0.0000000), wk =   0.0124224
        k(   92) = (   0.1100000   0.3136391   0.0000000), wk =   0.0124224
        k(   93) = (   0.1200000   0.3136391   0.0000000), wk =   0.0124224
        k(   94) = (   0.1300000   0.3136391   0.0000000), wk =   0.0124224
        k(   95) = (   0.1400000   0.3136391   0.0000000), wk =   0.0124224
        k(   96) = (   0.1500000   0.3136391   0.0000000), wk =   0.0124224
        k(   97) = (   0.1600000   0.3136391   0.0000000), wk =   0.0124224
        k(   98) = (   0.1700000   0.3136391   0.0000000), wk =   0.0124224
        k(   99) = (   0.1800000   0.3136391   0.0000000), wk =   0.0124224
        k(  100) = (   0.1900000   0.3136391   0.0000000), wk =   0.0124224
        k(  101) = (   0.2000000   0.3136391   0.0000000), wk =   0.0124224
        k(  102) = (   0.2100000   0.3136391   0.0000000), wk =   0.0124224
        k(  103) = (   0.2200000   0.3136391   0.0000000), wk =   0.0124224
        k(  104) = (   0.2300000   0.3136391   0.0000000), wk =   0.0124224
        k(  105) = (   0.2400000   0.3136391   0.0000000), wk =   0.0124224
        k(  106) = (   0.2500000   0.3136391   0.0000000), wk =   0.0124224
        k(  107) = (   0.2600000   0.3136391   0.0000000), wk =   0.0124224
        k(  108) = (   0.2700000   0.3136391   0.0000000), wk =   0.0124224
        k(  109) = (   0.2800000   0.3136391   0.0000000), wk =   0.0124224
        k(  110) = (   0.2900000   0.3136391   0.0000000), wk =   0.0124224
        k(  111) = (   0.3000000   0.3136391   0.0000000), wk =   0.0124224
        k(  112) = (   0.3100000   0.3136391   0.0000000), wk =   0.0124224
        k(  113) = (   0.3200000   0.3136391   0.0000000), wk =   0.0124224
        k(  114) = (   0.3300000   0.3136391   0.0000000), wk =   0.0124224
        k(  115) = (   0.3400000   0.3136391   0.0000000), wk =   0.0124224
        k(  116) = (   0.3500000   0.3136391   0.0000000), wk =   0.0124224
        k(  117) = (   0.3600000   0.3136391   0.0000000), wk =   0.0124224
        k(  118) = (   0.3700000   0.3136391   0.0000000), wk =   0.0124224
        k(  119) = (   0.3800000   0.3136391   0.0000000), wk =   0.0124224
        k(  120) = (   0.3900000   0.3136391   0.0000000), wk =   0.0124224
        k(  121) = (   0.4000000   0.3136391   0.0000000), wk =   0.0124224
        k(  122) = (   0.4100000   0.3136391   0.0000000), wk =   0.0124224
        k(  123) = (   0.4200000   0.3136391   0.0000000), wk =   0.0124224
        k(  124) = (   0.4300000   0.3136391   0.0000000), wk =   0.0124224
        k(  125) = (   0.4400000   0.3136391   0.0000000), wk =   0.0124224
        k(  126) = (   0.4500000   0.3136391   0.0000000), wk =   0.0124224
        k(  127) = (   0.4600000   0.3136391   0.0000000), wk =   0.0124224
        k(  128) = (   0.4700000   0.3136391   0.0000000), wk =   0.0124224
        k(  129) = (   0.4800000   0.3136391   0.0000000), wk =   0.0124224
        k(  130) = (   0.4900000   0.3136391   0.0000000), wk =   0.0124224
        k(  131) = (   0.5000000   0.3136391   0.0000000), wk =   0.0124224
        k(  132) = (   0.5000000   0.3031845   0.0000000), wk =   0.0124224
        k(  133) = (   0.5000000   0.2927298   0.0000000), wk =   0.0124224
        k(  134) = (   0.5000000   0.2822752   0.0000000), wk =   0.0124224
        k(  135) = (   0.5000000   0.2718206   0.0000000), wk =   0.0124224
        k(  136) = (   0.5000000   0.2613659   0.0000000), wk =   0.0124224
        k(  137) = (   0.5000000   0.2509113   0.0000000), wk =   0.0124224
        k(  138) = (   0.5000000   0.2404567   0.0000000), wk =   0.0124224
        k(  139) = (   0.5000000   0.2300020   0.0000000), wk =   0.0124224
        k(  140) = (   0.5000000   0.2195474   0.0000000), wk =   0.0124224
        k(  141) = (   0.5000000   0.2090927   0.0000000), wk =   0.0124224
        k(  142) = (   0.5000000   0.1986381   0.0000000), wk =   0.0124224
        k(  143) = (   0.5000000   0.1881835   0.0000000), wk =   0.0124224
        k(  144) = (   0.5000000   0.1777288   0.0000000), wk =   0.0124224
        k(  145) = (   0.5000000   0.1672742   0.0000000), wk =   0.0124224
        k(  146) = (   0.5000000   0.1568196   0.0000000), wk =   0.0124224
        k(  147) = (   0.5000000   0.1463649   0.0000000), wk =   0.0124224
        k(  148) = (   0.5000000   0.1359103   0.0000000), wk =   0.0124224
        k(  149) = (   0.5000000   0.1254556   0.0000000), wk =   0.0124224
        k(  150) = (   0.5000000   0.1150010   0.0000000), wk =   0.0124224
        k(  151) = (   0.5000000   0.1045464   0.0000000), wk =   0.0124224
        k(  152) = (   0.5000000   0.0940917   0.0000000), wk =   0.0124224
        k(  153) = (   0.5000000   0.0836371   0.0000000), wk =   0.0124224
        k(  154) = (   0.5000000   0.0731825   0.0000000), wk =   0.0124224
        k(  155) = (   0.5000000   0.0627278   0.0000000), wk =   0.0124224
        k(  156) = (   0.5000000   0.0522732   0.0000000), wk =   0.0124224
        k(  157) = (   0.5000000   0.0418185   0.0000000), wk =   0.0124224
        k(  158) = (   0.5000000   0.0313639   0.0000000), wk =   0.0124224
        k(  159) = (   0.5000000   0.0209093   0.0000000), wk =   0.0124224
        k(  160) = (   0.5000000   0.0104546   0.0000000), wk =   0.0124224
        k(  161) = (   0.5000000   0.0000000   0.0000000), wk =   0.0124224

                       cryst. coord.
        k(    1) = (   0.5000000   0.0000000   0.0000000), wk =   0.0124224
        k(    2) = (   0.4900000   0.0000000   0.0000000), wk =   0.0124224
        k(    3) = (   0.4800000   0.0000000   0.0000000), wk =   0.0124224
        k(    4) = (   0.4700000   0.0000000   0.0000000), wk =   0.0124224
        k(    5) = (   0.4600000   0.0000000   0.0000000), wk =   0.0124224
        k(    6) = (   0.4500000   0.0000000   0.0000000), wk =   0.0124224
        k(    7) = (   0.4400000   0.0000000   0.0000000), wk =   0.0124224
        k(    8) = (   0.4300000   0.0000000   0.0000000), wk =   0.0124224
        k(    9) = (   0.4200000   0.0000000   0.0000000), wk =   0.0124224
        k(   10) = (   0.4100000   0.0000000   0.0000000), wk =   0.0124224
        k(   11) = (   0.4000000   0.0000000   0.0000000), wk =   0.0124224
        k(   12) = (   0.3900000   0.0000000   0.0000000), wk =   0.0124224
        k(   13) = (   0.3800000   0.0000000   0.0000000), wk =   0.0124224
        k(   14) = (   0.3700000   0.0000000   0.0000000), wk =   0.0124224
        k(   15) = (   0.3600000   0.0000000   0.0000000), wk =   0.0124224
        k(   16) = (   0.3500000   0.0000000   0.0000000), wk =   0.0124224
        k(   17) = (   0.3400000   0.0000000   0.0000000), wk =   0.0124224
        k(   18) = (   0.3300000   0.0000000   0.0000000), wk =   0.0124224
        k(   19) = (   0.3200000   0.0000000   0.0000000), wk =   0.0124224
        k(   20) = (   0.3100000   0.0000000   0.0000000), wk =   0.0124224
        k(   21) = (   0.3000000   0.0000000   0.0000000), wk =   0.0124224
        k(   22) = (   0.2900000   0.0000000   0.0000000), wk =   0.0124224
        k(   23) = (   0.2800000   0.0000000   0.0000000), wk =   0.0124224
        k(   24) = (   0.2700000   0.0000000   0.0000000), wk =   0.0124224
        k(   25) = (   0.2600000   0.0000000   0.0000000), wk =   0.0124224
        k(   26) = (   0.2500000   0.0000000   0.0000000), wk =   0.0124224
        k(   27) = (   0.2400000   0.0000000   0.0000000), wk =   0.0124224
        k(   28) = (   0.2300000   0.0000000   0.0000000), wk =   0.0124224
        k(   29) = (   0.2200000   0.0000000   0.0000000), wk =   0.0124224
        k(   30) = (   0.2100000   0.0000000   0.0000000), wk =   0.0124224
        k(   31) = (   0.2000000   0.0000000   0.0000000), wk =   0.0124224
        k(   32) = (   0.1900000   0.0000000   0.0000000), wk =   0.0124224
        k(   33) = (   0.1800000   0.0000000   0.0000000), wk =   0.0124224
        k(   34) = (   0.1700000   0.0000000   0.0000000), wk =   0.0124224
        k(   35) = (   0.1600000   0.0000000   0.0000000), wk =   0.0124224
        k(   36) = (   0.1500000   0.0000000   0.0000000), wk =   0.0124224
        k(   37) = (   0.1400000   0.0000000   0.0000000), wk =   0.0124224
        k(   38) = (   0.1300000   0.0000000   0.0000000), wk =   0.0124224
        k(   39) = (   0.1200000   0.0000000   0.0000000), wk =   0.0124224
        k(   40) = (   0.1100000   0.0000000   0.0000000), wk =   0.0124224
        k(   41) = (   0.1000000   0.0000000   0.0000000), wk =   0.0124224
        k(   42) = (   0.0900000   0.0000000   0.0000000), wk =   0.0124224
        k(   43) = (   0.0800000   0.0000000   0.0000000), wk =   0.0124224
        k(   44) = (   0.0700000   0.0000000   0.0000000), wk =   0.0124224
        k(   45) = (   0.0600000   0.0000000   0.0000000), wk =   0.0124224
        k(   46) = (   0.0500000   0.0000000   0.0000000), wk =   0.0124224
        k(   47) = (   0.0400000   0.0000000   0.0000000), wk =   0.0124224
        k(   48) = (   0.0300000   0.0000000   0.0000000), wk =   0.0124224
        k(   49) = (   0.0200000   0.0000000   0.0000000), wk =   0.0124224
        k(   50) = (   0.0100000   0.0000000   0.0000000), wk =   0.0124224
        k(   51) = (   0.0000000   0.0000000   0.0000000), wk =   0.0124224
        k(   52) = (   0.0000000   0.0166667   0.0000000), wk =   0.0124224
        k(   53) = (   0.0000000   0.0333333   0.0000000), wk =   0.0124224
        k(   54) = (   0.0000000   0.0500000   0.0000000), wk =   0.0124224
        k(   55) = (   0.0000000   0.0666667   0.0000000), wk =   0.0124224
        k(   56) = (   0.0000000   0.0833333   0.0000000), wk =   0.0124224
        k(   57) = (   0.0000000   0.1000000   0.0000000), wk =   0.0124224
        k(   58) = (   0.0000000   0.1166667   0.0000000), wk =   0.0124224
        k(   59) = (   0.0000000   0.1333333   0.0000000), wk =   0.0124224
        k(   60) = (   0.0000000   0.1500000   0.0000000), wk =   0.0124224
        k(   61) = (   0.0000000   0.1666667   0.0000000), wk =   0.0124224
        k(   62) = (   0.0000000   0.1833333   0.0000000), wk =   0.0124224
        k(   63) = (   0.0000000   0.2000000   0.0000000), wk =   0.0124224
        k(   64) = (   0.0000000   0.2166667   0.0000000), wk =   0.0124224
        k(   65) = (   0.0000000   0.2333333   0.0000000), wk =   0.0124224
        k(   66) = (   0.0000000   0.2500000   0.0000000), wk =   0.0124224
        k(   67) = (   0.0000000   0.2666667   0.0000000), wk =   0.0124224
        k(   68) = (   0.0000000   0.2833333   0.0000000), wk =   0.0124224
        k(   69) = (   0.0000000   0.3000000   0.0000000), wk =   0.0124224
        k(   70) = (   0.0000000   0.3166667   0.0000000), wk =   0.0124224
        k(   71) = (   0.0000000   0.3333333   0.0000000), wk =   0.0124224
        k(   72) = (   0.0000000   0.3500000   0.0000000), wk =   0.0124224
        k(   73) = (   0.0000000   0.3666667   0.0000000), wk =   0.0124224
        k(   74) = (   0.0000000   0.3833333   0.0000000), wk =   0.0124224
        k(   75) = (   0.0000000   0.4000000   0.0000000), wk =   0.0124224
        k(   76) = (   0.0000000   0.4166667   0.0000000), wk =   0.0124224
        k(   77) = (   0.0000000   0.4333333   0.0000000), wk =   0.0124224
        k(   78) = (   0.0000000   0.4500000   0.0000000), wk =   0.0124224
        k(   79) = (   0.0000000   0.4666667   0.0000000), wk =   0.0124224
        k(   80) = (   0.0000000   0.4833333   0.0000000), wk =   0.0124224
        k(   81) = (   0.0000000   0.5000000   0.0000000), wk =   0.0124224
        k(   82) = (   0.0100000   0.5000000   0.0000000), wk =   0.0124224
        k(   83) = (   0.0200000   0.5000000   0.0000000), wk =   0.0124224
        k(   84) = (   0.0300000   0.5000000   0.0000000), wk =   0.0124224
        k(   85) = (   0.0400000   0.5000000   0.0000000), wk =   0.0124224
        k(   86) = (   0.0500000   0.5000000   0.0000000), wk =   0.0124224
        k(   87) = (   0.0600000   0.5000000   0.0000000), wk =   0.0124224
        k(   88) = (   0.0700000   0.5000000   0.0000000), wk =   0.0124224
        k(   89) = (   0.0800000   0.5000000   0.0000000), wk =   0.0124224
        k(   90) = (   0.0900000   0.5000000   0.0000000), wk =   0.0124224
        k(   91) = (   0.1000000   0.5000000   0.0000000), wk =   0.0124224
        k(   92) = (   0.1100000   0.5000000   0.0000000), wk =   0.0124224
        k(   93) = (   0.1200000   0.5000000   0.0000000), wk =   0.0124224
        k(   94) = (   0.1300000   0.5000000   0.0000000), wk =   0.0124224
        k(   95) = (   0.1400000   0.5000000   0.0000000), wk =   0.0124224
        k(   96) = (   0.1500000   0.5000000   0.0000000), wk =   0.0124224
        k(   97) = (   0.1600000   0.5000000   0.0000000), wk =   0.0124224
        k(   98) = (   0.1700000   0.5000000   0.0000000), wk =   0.0124224
        k(   99) = (   0.1800000   0.5000000   0.0000000), wk =   0.0124224
        k(  100) = (   0.1900000   0.5000000   0.0000000), wk =   0.0124224
        k(  101) = (   0.2000000   0.5000000   0.0000000), wk =   0.0124224
        k(  102) = (   0.2100000   0.5000000   0.0000000), wk =   0.0124224
        k(  103) = (   0.2200000   0.5000000   0.0000000), wk =   0.0124224
        k(  104) = (   0.2300000   0.5000000   0.0000000), wk =   0.0124224
        k(  105) = (   0.2400000   0.5000000   0.0000000), wk =   0.0124224
        k(  106) = (   0.2500000   0.5000000   0.0000000), wk =   0.0124224
        k(  107) = (   0.2600000   0.5000000   0.0000000), wk =   0.0124224
        k(  108) = (   0.2700000   0.5000000   0.0000000), wk =   0.0124224
        k(  109) = (   0.2800000   0.5000000   0.0000000), wk =   0.0124224
        k(  110) = (   0.2900000   0.5000000   0.0000000), wk =   0.0124224
        k(  111) = (   0.3000000   0.5000000   0.0000000), wk =   0.0124224
        k(  112) = (   0.3100000   0.5000000   0.0000000), wk =   0.0124224
        k(  113) = (   0.3200000   0.5000000   0.0000000), wk =   0.0124224
        k(  114) = (   0.3300000   0.5000000   0.0000000), wk =   0.0124224
        k(  115) = (   0.3400000   0.5000000   0.0000000), wk =   0.0124224
        k(  116) = (   0.3500000   0.5000000   0.0000000), wk =   0.0124224
        k(  117) = (   0.3600000   0.5000000   0.0000000), wk =   0.0124224
        k(  118) = (   0.3700000   0.5000000   0.0000000), wk =   0.0124224
        k(  119) = (   0.3800000   0.5000000   0.0000000), wk =   0.0124224
        k(  120) = (   0.3900000   0.5000000   0.0000000), wk =   0.0124224
        k(  121) = (   0.4000000   0.5000000   0.0000000), wk =   0.0124224
        k(  122) = (   0.4100000   0.5000000   0.0000000), wk =   0.0124224
        k(  123) = (   0.4200000   0.5000000   0.0000000), wk =   0.0124224
        k(  124) = (   0.4300000   0.5000000   0.0000000), wk =   0.0124224
        k(  125) = (   0.4400000   0.5000000   0.0000000), wk =   0.0124224
        k(  126) = (   0.4500000   0.5000000   0.0000000), wk =   0.0124224
        k(  127) = (   0.4600000   0.5000000   0.0000000), wk =   0.0124224
        k(  128) = (   0.4700000   0.5000000   0.0000000), wk =   0.0124224
        k(  129) = (   0.4800000   0.5000000   0.0000000), wk =   0.0124224
        k(  130) = (   0.4900000   0.5000000   0.0000000), wk =   0.0124224
        k(  131) = (   0.5000000   0.5000000   0.0000000), wk =   0.0124224
        k(  132) = (   0.5000000   0.4833333   0.0000000), wk =   0.0124224
        k(  133) = (   0.5000000   0.4666667   0.0000000), wk =   0.0124224
        k(  134) = (   0.5000000   0.4500000   0.0000000), wk =   0.0124224
        k(  135) = (   0.5000000   0.4333333   0.0000000), wk =   0.0124224
        k(  136) = (   0.5000000   0.4166667   0.0000000), wk =   0.0124224
        k(  137) = (   0.5000000   0.4000000   0.0000000), wk =   0.0124224
        k(  138) = (   0.5000000   0.3833333   0.0000000), wk =   0.0124224
        k(  139) = (   0.5000000   0.3666667   0.0000000), wk =   0.0124224
        k(  140) = (   0.5000000   0.3500000   0.0000000), wk =   0.0124224
        k(  141) = (   0.5000000   0.3333333   0.0000000), wk =   0.0124224
        k(  142) = (   0.5000000   0.3166667   0.0000000), wk =   0.0124224
        k(  143) = (   0.5000000   0.3000000   0.0000000), wk =   0.0124224
        k(  144) = (   0.5000000   0.2833333   0.0000000), wk =   0.0124224
        k(  145) = (   0.5000000   0.2666667   0.0000000), wk =   0.0124224
        k(  146) = (   0.5000000   0.2500000   0.0000000), wk =   0.0124224
        k(  147) = (   0.5000000   0.2333333   0.0000000), wk =   0.0124224
        k(  148) = (   0.5000000   0.2166667   0.0000000), wk =   0.0124224
        k(  149) = (   0.5000000   0.2000000   0.0000000), wk =   0.0124224
        k(  150) = (   0.5000000   0.1833333   0.0000000), wk =   0.0124224
        k(  151) = (   0.5000000   0.1666667   0.0000000), wk =   0.0124224
        k(  152) = (   0.5000000   0.1500000   0.0000000), wk =   0.0124224
        k(  153) = (   0.5000000   0.1333333   0.0000000), wk =   0.0124224
        k(  154) = (   0.5000000   0.1166667   0.0000000), wk =   0.0124224
        k(  155) = (   0.5000000   0.1000000   0.0000000), wk =   0.0124224
        k(  156) = (   0.5000000   0.0833333   0.0000000), wk =   0.0124224
        k(  157) = (   0.5000000   0.0666667   0.0000000), wk =   0.0124224
        k(  158) = (   0.5000000   0.0500000   0.0000000), wk =   0.0124224
        k(  159) = (   0.5000000   0.0333333   0.0000000), wk =   0.0124224
        k(  160) = (   0.5000000   0.0166667   0.0000000), wk =   0.0124224
        k(  161) = (   0.5000000   0.0000000   0.0000000), wk =   0.0124224

     Dense  grid:  1889203 G-vectors     FFT dimensions: (  80, 120, 432)

     Dynamical RAM for                 wfc:       1.25 MB

     Dynamical RAM for     wfc (w. buffer):       1.25 MB

     Dynamical RAM for           str. fact:       0.77 MB

     Dynamical RAM for           local pot:       0.00 MB

     Dynamical RAM for          nlocal pot:       3.08 MB

     Dynamical RAM for                qrad:       2.15 MB

     Dynamical RAM for          rho,v,vnew:       2.47 MB

     Dynamical RAM for           G-vectors:       1.63 MB

     Dynamical RAM for          h,s,v(r/c):       0.12 MB

     Dynamical RAM for          <psi|beta>:       0.03 MB

     Dynamical RAM for                 psi:       2.50 MB

     Dynamical RAM for                hpsi:       2.50 MB

     Dynamical RAM for                spsi:       2.50 MB

     Dynamical RAM for      wfcinit/wfcrot:       3.10 MB

     Dynamical RAM for           addusdens:      18.07 MB

     Estimated static dynamical RAM per process >      14.70 MB

     Estimated max dynamical RAM per process >      32.77 MB

     Estimated total dynamical RAM >       2.40 GB

     The potential is recalculated from file :
     ../tmp/fgz.save/charge-density


     negative rho (up, down):  2.271E-06 0.000E+00
     Starting wfcs are   32 randomized atomic wfcs

     Band Structure Calculation
     Davidson diagonalization with overlap

     Computing kpt #:     1  of   161
     total cpu time spent up to now is       72.0 secs

     Computing kpt #:     2  of   161
     total cpu time spent up to now is      147.1 secs

     Computing kpt #:     3  of   161
     total cpu time spent up to now is      215.0 secs

     Computing kpt #:     4  of   161
     total cpu time spent up to now is      286.3 secs

     Computing kpt #:     5  of   161
     total cpu time spent up to now is      362.5 secs

     Computing kpt #:     6  of   161
     total cpu time spent up to now is      436.1 secs

     Computing kpt #:     7  of   161
     total cpu time spent up to now is      515.7 secs

     Computing kpt #:     8  of   161
     total cpu time spent up to now is      602.9 secs

     Computing kpt #:     9  of   161
     total cpu time spent up to now is      696.1 secs

     Computing kpt #:    10  of   161
     total cpu time spent up to now is      789.2 secs

     Computing kpt #:    11  of   161
     total cpu time spent up to now is      893.5 secs

     Computing kpt #:    12  of   161
     total cpu time spent up to now is     1001.6 secs

     Computing kpt #:    13  of   161
     total cpu time spent up to now is     1124.3 secs

     Computing kpt #:    14  of   161
     total cpu time spent up to now is     1250.9 secs

     Computing kpt #:    15  of   161
     total cpu time spent up to now is     1388.8 secs

     Computing kpt #:    16  of   161
     total cpu time spent up to now is     1504.6 secs

     Computing kpt #:    17  of   161
     total cpu time spent up to now is     1609.3 secs

     Computing kpt #:    18  of   161
     total cpu time spent up to now is     1714.9 secs

     Computing kpt #:    19  of   161
     total cpu time spent up to now is     1819.4 secs

     Computing kpt #:    20  of   161
     total cpu time spent up to now is     1939.2 secs

     Computing kpt #:    21  of   161
     total cpu time spent up to now is     2105.7 secs

     Computing kpt #:    22  of   161
     total cpu time spent up to now is     2293.3 secs

     Computing kpt #:    23  of   161
     total cpu time spent up to now is     2462.1 secs

     Computing kpt #:    24  of   161
     total cpu time spent up to now is     2613.0 secs

     Computing kpt #:    25  of   161
     total cpu time spent up to now is     2746.1 secs

     Computing kpt #:    26  of   161
     total cpu time spent up to now is     2876.0 secs

     Computing kpt #:    27  of   161
     total cpu time spent up to now is     2995.0 secs

     Computing kpt #:    28  of   161
     total cpu time spent up to now is     3106.3 secs

     Computing kpt #:    29  of   161
     total cpu time spent up to now is     3223.5 secs

     Computing kpt #:    30  of   161
     total cpu time spent up to now is     3341.7 secs

     Computing kpt #:    31  of   161
     total cpu time spent up to now is     3456.9 secs

     Computing kpt #:    32  of   161
     total cpu time spent up to now is     3584.1 secs

     Computing kpt #:    33  of   161
     total cpu time spent up to now is     3733.0 secs

     Computing kpt #:    34  of   161
     total cpu time spent up to now is     3883.6 secs

     Computing kpt #:    35  of   161
     total cpu time spent up to now is     3987.6 secs

     Computing kpt #:    36  of   161
     total cpu time spent up to now is     4084.1 secs

     Computing kpt #:    37  of   161
     total cpu time spent up to now is     4174.8 secs

     Computing kpt #:    38  of   161
     total cpu time spent up to now is     4262.2 secs

     Computing kpt #:    39  of   161
     total cpu time spent up to now is     4344.4 secs

     Computing kpt #:    40  of   161
     total cpu time spent up to now is     4428.9 secs

     Computing kpt #:    41  of   161
     total cpu time spent up to now is     4510.4 secs

     Computing kpt #:    42  of   161
     total cpu time spent up to now is     4597.1 secs

     Computing kpt #:    43  of   161
     total cpu time spent up to now is     4683.6 secs

     Computing kpt #:    44  of   161
     total cpu time spent up to now is     4774.0 secs

     Computing kpt #:    45  of   161
     total cpu time spent up to now is     4862.8 secs

     Computing kpt #:    46  of   161
     total cpu time spent up to now is     4952.5 secs

     Computing kpt #:    47  of   161
     total cpu time spent up to now is     5046.2 secs

     Computing kpt #:    48  of   161
     total cpu time spent up to now is     5134.6 secs

     Computing kpt #:    49  of   161
     total cpu time spent up to now is     5226.8 secs

     Computing kpt #:    50  of   161
     total cpu time spent up to now is     5313.1 secs

     Computing kpt #:    51  of   161
     total cpu time spent up to now is     5405.6 secs

     Computing kpt #:    52  of   161
     total cpu time spent up to now is     5486.2 secs

     Computing kpt #:    53  of   161
     total cpu time spent up to now is     5576.6 secs

     Computing kpt #:    54  of   161
     total cpu time spent up to now is     5660.7 secs

     Computing kpt #:    55  of   161
     total cpu time spent up to now is     5748.5 secs

     Computing kpt #:    56  of   161
     total cpu time spent up to now is     5828.8 secs

     Computing kpt #:    57  of   161
     total cpu time spent up to now is     5917.4 secs

     Computing kpt #:    58  of   161
     total cpu time spent up to now is     6010.0 secs

     Computing kpt #:    59  of   161
     total cpu time spent up to now is     6105.3 secs

     Computing kpt #:    60  of   161
     total cpu time spent up to now is     6201.5 secs

     Computing kpt #:    61  of   161
     total cpu time spent up to now is     6339.5 secs

     Computing kpt #:    62  of   161
     total cpu time spent up to now is     6496.7 secs

     Computing kpt #:    63  of   161
     total cpu time spent up to now is     6592.0 secs

     Computing kpt #:    64  of   161
     total cpu time spent up to now is     6682.2 secs

     Computing kpt #:    65  of   161
     total cpu time spent up to now is     6775.4 secs

     Computing kpt #:    66  of   161
     total cpu time spent up to now is     6857.1 secs

     Computing kpt #:    67  of   161
     total cpu time spent up to now is     6941.8 secs

     Computing kpt #:    68  of   161
     total cpu time spent up to now is     7022.5 secs

     Computing kpt #:    69  of   161
     total cpu time spent up to now is     7104.1 secs

     Computing kpt #:    70  of   161
     total cpu time spent up to now is     7181.1 secs

     Computing kpt #:    71  of   161
     total cpu time spent up to now is     7261.0 secs

     Computing kpt #:    72  of   161
     total cpu time spent up to now is     7331.9 secs

     Computing kpt #:    73  of   161
     total cpu time spent up to now is     7406.6 secs

     Computing kpt #:    74  of   161
     total cpu time spent up to now is     7482.7 secs

     Computing kpt #:    75  of   161
     total cpu time spent up to now is     7559.1 secs

     Computing kpt #:    76  of   161
     total cpu time spent up to now is     7634.6 secs

     Computing kpt #:    77  of   161
     total cpu time spent up to now is     7705.8 secs

     Computing kpt #:    78  of   161
     total cpu time spent up to now is     7780.6 secs

     Computing kpt #:    79  of   161
     total cpu time spent up to now is     7846.3 secs

     Computing kpt #:    80  of   161
     total cpu time spent up to now is     7916.7 secs

     Computing kpt #:    81  of   161
     total cpu time spent up to now is     7982.4 secs

     Computing kpt #:    82  of   161
     total cpu time spent up to now is     8047.8 secs

     Computing kpt #:    83  of   161
     total cpu time spent up to now is     8119.4 secs

     Computing kpt #:    84  of   161
     total cpu time spent up to now is     8194.5 secs

     Computing kpt #:    85  of   161
     total cpu time spent up to now is     8271.9 secs

     Computing kpt #:    86  of   161
     total cpu time spent up to now is     8347.2 secs

     Computing kpt #:    87  of   161
     total cpu time spent up to now is     8421.1 secs

     Computing kpt #:    88  of   161
     total cpu time spent up to now is     8500.9 secs

     Computing kpt #:    89  of   161
     total cpu time spent up to now is     8576.6 secs

     Computing kpt #:    90  of   161
     total cpu time spent up to now is     8654.8 secs

     Computing kpt #:    91  of   161
     total cpu time spent up to now is     8733.2 secs

     Computing kpt #:    92  of   161
     total cpu time spent up to now is     8820.3 secs

     Computing kpt #:    93  of   161
     total cpu time spent up to now is     8902.7 secs

     Computing kpt #:    94  of   161
     total cpu time spent up to now is     8985.4 secs

     Computing kpt #:    95  of   161
     total cpu time spent up to now is     9071.7 secs

     Computing kpt #:    96  of   161
     total cpu time spent up to now is     9162.2 secs

     Computing kpt #:    97  of   161
     total cpu time spent up to now is     9248.1 secs

     Computing kpt #:    98  of   161
     total cpu time spent up to now is     9335.9 secs

     Computing kpt #:    99  of   161
     total cpu time spent up to now is     9435.5 secs

     Computing kpt #:   100  of   161
     total cpu time spent up to now is     9556.3 secs

     Computing kpt #:   101  of   161
     total cpu time spent up to now is     9691.8 secs

     Computing kpt #:   102  of   161
     total cpu time spent up to now is     9827.5 secs

     Computing kpt #:   103  of   161
     total cpu time spent up to now is     9939.4 secs

     Computing kpt #:   104  of   161
     total cpu time spent up to now is    10054.7 secs

     Computing kpt #:   105  of   161
     total cpu time spent up to now is    10169.7 secs

     Computing kpt #:   106  of   161
     total cpu time spent up to now is    10261.1 secs

     Computing kpt #:   107  of   161
     total cpu time spent up to now is    10345.5 secs

     Computing kpt #:   108  of   161
     total cpu time spent up to now is    10427.3 secs

     Computing kpt #:   109  of   161
     total cpu time spent up to now is    10510.5 secs

     Computing kpt #:   110  of   161
     total cpu time spent up to now is    10593.2 secs

     Computing kpt #:   111  of   161
     total cpu time spent up to now is    10673.0 secs

     Computing kpt #:   112  of   161
     total cpu time spent up to now is    10753.5 secs

     Computing kpt #:   113  of   161
     total cpu time spent up to now is    10837.5 secs

     Computing kpt #:   114  of   161
     total cpu time spent up to now is    10916.7 secs

     Computing kpt #:   115  of   161
     total cpu time spent up to now is    10992.5 secs

     Computing kpt #:   116  of   161
     total cpu time spent up to now is    11068.1 secs

     Computing kpt #:   117  of   161
     total cpu time spent up to now is    11144.2 secs

     Computing kpt #:   118  of   161
     total cpu time spent up to now is    11220.7 secs

     Computing kpt #:   119  of   161
     total cpu time spent up to now is    11299.3 secs

     Computing kpt #:   120  of   161
     total cpu time spent up to now is    11374.5 secs

     Computing kpt #:   121  of   161
     total cpu time spent up to now is    11446.0 secs

     Computing kpt #:   122  of   161
     total cpu time spent up to now is    11521.9 secs

     Computing kpt #:   123  of   161
     total cpu time spent up to now is    11595.9 secs

     Computing kpt #:   124  of   161
     total cpu time spent up to now is    11669.4 secs

     Computing kpt #:   125  of   161
     total cpu time spent up to now is    11744.7 secs

     Computing kpt #:   126  of   161
     total cpu time spent up to now is    11818.9 secs

     Computing kpt #:   127  of   161
     total cpu time spent up to now is    11892.2 secs

     Computing kpt #:   128  of   161
     total cpu time spent up to now is    11966.3 secs

     Computing kpt #:   129  of   161
     total cpu time spent up to now is    12038.5 secs

     Computing kpt #:   130  of   161
     total cpu time spent up to now is    12112.9 secs

     Computing kpt #:   131  of   161
     total cpu time spent up to now is    12189.6 secs

     Computing kpt #:   132  of   161
     total cpu time spent up to now is    12261.1 secs

     Computing kpt #:   133  of   161
     total cpu time spent up to now is    12336.2 secs

     Computing kpt #:   134  of   161
     total cpu time spent up to now is    12409.6 secs

     Computing kpt #:   135  of   161
     total cpu time spent up to now is    12486.5 secs

     Computing kpt #:   136  of   161
     total cpu time spent up to now is    12561.5 secs

     Computing kpt #:   137  of   161
     total cpu time spent up to now is    12635.2 secs

     Computing kpt #:   138  of   161
     total cpu time spent up to now is    12707.6 secs

     Computing kpt #:   139  of   161
     total cpu time spent up to now is    12781.9 secs

     Computing kpt #:   140  of   161
     total cpu time spent up to now is    12853.2 secs

     Computing kpt #:   141  of   161
     total cpu time spent up to now is    12929.2 secs

     Computing kpt #:   142  of   161
     total cpu time spent up to now is    12999.9 secs

     Computing kpt #:   143  of   161
     total cpu time spent up to now is    13073.4 secs

     Computing kpt #:   144  of   161
     total cpu time spent up to now is    13149.9 secs

     Computing kpt #:   145  of   161
     total cpu time spent up to now is    13224.2 secs

     Computing kpt #:   146  of   161
     total cpu time spent up to now is    13299.0 secs

     Computing kpt #:   147  of   161
     total cpu time spent up to now is    13372.8 secs

     Computing kpt #:   148  of   161
     total cpu time spent up to now is    13445.3 secs

     Computing kpt #:   149  of   161
     total cpu time spent up to now is    13525.9 secs

     Computing kpt #:   150  of   161
     total cpu time spent up to now is    13604.8 secs

     Computing kpt #:   151  of   161
     total cpu time spent up to now is    13685.7 secs

     Computing kpt #:   152  of   161
     total cpu time spent up to now is    13764.6 secs

     Computing kpt #:   153  of   161
     total cpu time spent up to now is    13843.7 secs

     Computing kpt #:   154  of   161
     total cpu time spent up to now is    13924.3 secs

     Computing kpt #:   155  of   161
     total cpu time spent up to now is    14001.4 secs

     Computing kpt #:   156  of   161
     total cpu time spent up to now is    14080.0 secs

     Computing kpt #:   157  of   161
     total cpu time spent up to now is    14160.4 secs

     Computing kpt #:   158  of   161
     total cpu time spent up to now is    14236.2 secs

     Computing kpt #:   159  of   161
     total cpu time spent up to now is    14306.9 secs

     Computing kpt #:   160  of   161
     total cpu time spent up to now is    14385.4 secs

     Computing kpt #:   161  of   161
     total cpu time spent up to now is    14456.6 secs

     ethr =  2.27E-11,  avg # of iterations = 34.8

     total cpu time spent up to now is    14456.6 secs

     End of band structure calculation

          k = 0.5000 0.0000 0.0000 (236166 PWs)   bands (ev):

   -27.0331 -27.0331 -26.8903 -26.8903 -15.8176 -15.8176 -12.7507 -12.7507
   -10.9434 -10.9434  -9.5700  -9.5700  -8.9138  -8.9138  -7.0851  -7.0851
    -6.3104  -6.3104  -5.8506  -5.8506  -4.9393  -4.9393   3.7842   3.7842
     5.2717   5.2717

          k = 0.4900 0.0000 0.0000 (236170 PWs)   bands (ev):

   -27.0593 -27.0078 -26.9134 -26.8678 -15.9299 -15.7039 -12.8518 -12.6483
   -11.0009 -10.8848  -9.5807  -9.5596  -8.9678  -8.8597  -7.1072  -7.0594
    -6.3217  -6.2979  -5.9000  -5.8011  -4.9442  -4.9325   3.6882   3.8821
     5.1712   5.3752

          k = 0.4800 0.0000 0.0000 (236190 PWs)   bands (ev):

   -27.0861 -26.9833 -26.9372 -26.8460 -16.0407 -15.5889 -12.9517 -12.5448
   -11.0569 -10.8252  -9.5919  -9.5494  -9.0214  -8.8055  -7.1256  -7.0303
    -6.3319  -6.2839  -5.9490  -5.7513  -4.9472  -4.9238   3.5939   3.9816
     5.0738   5.4816

          k = 0.4700 0.0000 0.0000 (236176 PWs)   bands (ev):

   -27.1137 -26.9616 -26.9597 -26.8249 -16.1498 -15.4729 -13.0502 -12.4403
   -11.1112 -10.7651  -9.6035  -9.5394  -9.0743  -8.7516  -7.1404  -6.9977
    -6.3409  -6.2684  -5.9977  -5.7013  -4.9483  -4.9129   3.5013   4.0829
     4.9795   5.5909

          k = 0.4600 0.0000 0.0000 (236180 PWs)   bands (ev):

   -27.1420 -26.9866 -26.9369 -26.8045 -16.2573 -15.3559 -13.1474 -12.3347
   -11.1635 -10.7048  -9.6157  -9.5295  -9.1262  -8.6980  -7.1515  -6.9618
    -6.3491  -6.2513  -6.0460  -5.6512  -4.9479  -4.9000   3.4105   4.1857
     4.8884   5.7029

          k = 0.4500 0.0000 0.0000 (236178 PWs)   bands (ev):

   -27.1709 -27.0121 -26.9151 -26.7850 -16.3630 -15.2383 -13.2431 -12.2283
   -11.2136 -10.6446  -9.6285  -9.5196  -9.1768  -8.6449  -7.1589  -6.9227
    -6.3563  -6.2325  -6.0939  -5.6009  -4.9458  -4.8850   3.3213   4.2902
     4.8006   5.8176

          k = 0.4400 0.0000 0.0000 (236189 PWs)   bands (ev):

   -27.2003 -27.0381 -26.8941 -26.7662 -16.4668 -15.1202 -13.3373 -12.1211
   -11.2612 -10.5852  -9.6420  -9.5095  -9.2255  -8.5923  -7.1627  -6.8805
    -6.3628  -6.2118  -6.1411  -5.5505  -4.9422  -4.8680   3.2338   4.3961
     4.7160   5.9348

          k = 0.4300 0.0000 0.0000 (236191 PWs)   bands (ev):

   -27.2303 -27.0645 -26.8741 -26.7482 -16.5688 -15.0019 -13.4300 -12.0132
   -11.3060 -10.5272  -9.6561  -9.4992  -9.2717  -8.5405  -7.1629  -6.8354
    -6.3685  -6.1892  -6.1876  -5.4999  -4.9372  -4.8490   3.1480   4.5034
     4.6349   6.0545

          k = 0.4200 0.0000 0.0000 (236193 PWs)   bands (ev):

   -27.2607 -27.0913 -26.8551 -26.7311 -16.6687 -14.8839 -13.5212 -11.9049
   -11.3476 -10.4714  -9.6710  -9.4885  -9.3146  -8.4894  -7.1596  -6.7875
    -6.3735  -6.2332  -6.1646  -5.4491  -4.9310  -4.8280   3.0636   4.5573
     4.6119   6.1765

          k = 0.4100 0.0000 0.0000 (236223 PWs)   bands (ev):

   -27.2915 -27.1184 -26.8370 -26.7147 -16.7667 -14.7664 -13.6107 -11.7962
   -11.3857 -10.4188  -9.6866  -9.4773  -9.3532  -8.4393  -7.1530  -6.7370
    -6.3778  -6.2778  -6.1379  -5.3981  -4.9236  -4.8051   2.9808   4.4831
     4.7213   6.3006

          k = 0.4000 0.0000 0.0000 (236173 PWs)   bands (ev):

   -27.3227 -27.1459 -26.8199 -26.6992 -16.8626 -14.6500 -13.6986 -11.6874
   -11.4197 -10.3708  -9.7030  -9.4653  -9.3863  -8.3901  -7.1433  -6.6841
    -6.3813  -6.3211  -6.1091  -5.3467  -4.9151  -4.7805   2.8995   4.4126
     4.8314   6.4268

          k = 0.3900 0.0000 0.0000 (236245 PWs)   bands (ev):

   -27.3542 -27.1735 -26.8037 -26.6845 -16.9564 -14.5351 -13.7848 -11.5787
   -11.4492 -10.3289  -9.7201  -9.4525  -9.4123  -8.3420  -7.1308  -6.6290
    -6.3842  -6.3628  -6.0780  -5.2951  -4.9056  -4.7543   2.8195   4.3457
     4.9419   6.5547

          k = 0.3800 0.0000 0.0000 (236255 PWs)   bands (ev):

   -27.3858 -27.2014 -26.7885 -26.6706 -17.0481 -14.4225 -13.8693 -11.4736
   -11.4704 -10.2948  -9.7379  -9.4385  -9.4297  -8.2950  -7.1159  -6.5718
    -6.4026  -6.3862  -6.0448  -5.2429  -4.8953  -4.7267   2.7408   4.2826
     5.0523   6.6841

          k = 0.3700 0.0000 0.0000 (236227 PWs)   bands (ev):

   -27.4177 -27.2293 -26.7743 -26.6575 -17.1377 -14.3127 -13.9520 -11.4922
   -11.3628 -10.2700  -9.7565  -9.4369  -9.4231  -8.2492  -7.0992  -6.5129
    -6.4399  -6.3874  -6.0093  -5.1903  -4.8842  -4.6978   2.6635   4.2232
     5.1620   6.8146

          k = 0.3600 0.0000 0.0000 (236193 PWs)   bands (ev):

   -27.4496 -27.2574 -26.7609 -26.6452 -17.2251 -14.2065 -14.0330 -11.5044
   -11.2562 -10.2558  -9.7757  -9.4329  -9.4061  -8.2046  -7.0815  -6.4740
    -6.4525  -6.3877  -5.9715  -5.1369  -4.8724  -4.6678   2.5873   4.1677
     5.2704   6.9459

          k = 0.3500 0.0000 0.0000 (236253 PWs)   bands (ev):

   -27.4816 -27.2855 -26.7485 -26.6338 -17.3103 -14.1121 -14.1049 -11.5094
   -11.1512 -10.2524  -9.7955  -9.4174  -9.3870  -8.1614  -7.0637  -6.5040
    -6.3908  -6.3869  -5.9315  -5.0827  -4.8599  -4.6370   2.5123   4.1161
     5.3763   7.0046

          k = 0.3400 0.0000 0.0000 (236237 PWs)   bands (ev):

   -27.5135 -27.3135 -26.7370 -26.6230 -17.3933 -14.1894 -14.0086 -11.5064
   -11.0481 -10.2593  -9.8159  -9.3912  -9.3654  -8.1196  -7.0473  -6.5286
    -6.3849  -6.3283  -5.8893  -5.0276  -4.8470  -4.6055   2.4384   4.0684
     5.4786   6.9632

          k = 0.3300 0.0000 0.0000 (236223 PWs)   bands (ev):

   -27.5454 -27.3415 -26.7264 -26.6131 -17.4741 -14.2648 -13.9186 -11.4945
   -10.9475 -10.2751  -9.8369  -9.3556  -9.3408  -8.0792  -7.0338  -6.5463
    -6.3816  -6.2652  -5.8449  -4.9713  -4.8336  -4.5736   2.3656   4.0248
     5.5753   6.9243

          k = 0.3200 0.0000 0.0000 (236199 PWs)   bands (ev):

   -27.5770 -27.3693 -26.7166 -26.6039 -17.5526 -14.3383 -13.8357 -11.4730
   -10.8502 -10.2982  -9.8582  -9.3128  -9.3126  -8.0403  -7.0251  -6.5555
    -6.3768  -6.2019  -5.7984  -4.9137  -4.8198  -4.5416   2.2938   3.9853
     5.6640   6.8898

          k = 0.3100 0.0000 0.0000 (236185 PWs)   bands (ev):

   -27.6085 -27.3969 -26.7076 -26.5954 -17.6288 -14.4099 -13.7607 -11.4413
   -10.7567 -10.3267  -9.8800  -9.2807  -9.2640  -8.0029  -7.0225  -6.5548
    -6.3704  -6.1387  -5.7498  -4.8545  -4.8056  -4.5096   2.2230   3.9499
     5.7410   6.8627

          k = 0.3000 0.0000 0.0000 (236155 PWs)   bands (ev):

   -27.6396 -27.4242 -26.6995 -26.5876 -17.7028 -14.4794 -13.6941 -11.3989
   -10.6677 -10.3594  -9.9020  -9.2440  -9.2113  -7.9672  -7.0267  -6.5437
    -6.3623  -6.0760  -5.6993  -4.7936  -4.7912  -4.4780   2.1532   3.9186
     5.8023   6.8468

          k = 0.2900 0.0000 0.0000 (236209 PWs)   bands (ev):

   -27.6704 -27.4513 -26.6920 -26.5804 -17.7745 -14.5470 -13.6363 -11.3456
   -10.5840 -10.3950  -9.9243  -9.2021  -9.1560  -7.9331  -7.0376  -6.5226
    -6.3522  -6.0142  -5.6468  -4.7765  -4.7307  -4.4469   2.0843   3.8916
     5.8430   6.7526

          k = 0.2800 0.0000 0.0000 (236203 PWs)   bands (ev):

   -27.7008 -27.4779 -26.6854 -26.5740 -17.8439 -14.6126 -13.5873 -11.2816
   -10.5063 -10.4325  -9.9467  -9.1544  -9.0992  -7.9006  -7.0542  -6.4927
    -6.3400  -5.9537  -5.5926  -4.7616  -4.6657  -4.4167   2.0163   3.8687
     5.8596   6.6322

          k = 0.2700 0.0000 0.0000 (236227 PWs)   bands (ev):

   -27.7307 -27.5042 -26.6794 -26.5681 -17.9109 -14.6761 -13.5469 -11.2073
   -10.4712 -10.4350  -9.9692  -9.1007  -9.0418  -7.8699  -7.0750  -6.4555
    -6.3255  -5.8948  -5.5367  -4.7466  -4.5984  -4.3875   1.9494   3.8501
     5.8508   6.5156

          k = 0.2600 0.0000 0.0000 (236245 PWs)   bands (ev):

   -27.7601 -27.5300 -26.6741 -26.5628 -17.9756 -14.7375 -13.5147 -11.1232
   -10.5105 -10.3705  -9.9917  -9.0408  -8.9845  -7.8409  -7.0989  -6.4124
    -6.3086  -5.8379  -5.4793  -4.7314  -4.5286  -4.3595   1.8834   3.8356
     5.8181   6.4028

          k = 0.2500 0.0000 0.0000 (236245 PWs)   bands (ev):

   -27.7889 -27.5552 -26.6694 -26.5580 -18.0380 -14.7968 -13.4900 -11.0304
   -10.5500 -10.3129 -10.0140  -8.9746  -8.9279  -7.8137  -7.1247  -6.3647
    -6.2892  -5.7833  -5.4206  -4.7161  -4.4562  -4.3331   1.8183   3.8253
     5.7648   6.2938

          k = 0.2400 0.0000 0.0000 (236253 PWs)   bands (ev):

   -27.8170 -27.5799 -26.6652 -26.5538 -18.0980 -14.8540 -13.4719 -10.9297
   -10.5894 -10.2622 -10.0362  -8.9026  -8.8727  -7.7883  -7.1518  -6.3134
    -6.2672  -5.7312  -5.3607  -4.7006  -4.3812  -4.3084   1.7543   3.8192
     5.6945   6.1887

          k = 0.2300 0.0000 0.0000 (236253 PWs)   bands (ev):

   -27.8444 -27.6040 -26.6617 -26.5501 -18.1556 -14.9090 -13.4597 -10.8224
   -10.6283 -10.2179 -10.0581  -8.8252  -8.8191  -7.7648  -7.1794  -6.2594
    -6.2424  -5.6818  -5.2999  -4.6849  -4.3037  -4.2855   1.6914   3.8172
     5.6106   6.0874

          k = 0.2200 0.0000 0.0000 (236281 PWs)   bands (ev):

   -27.8711 -27.6274 -26.6586 -26.5468 -18.2109 -14.9619 -13.4526 -10.7095
   -10.6665 -10.1797 -10.0797  -8.7676  -8.7432  -7.7431  -7.2072  -6.2149
    -6.2033  -5.6354  -5.2385  -4.6690  -4.2646  -4.2236   1.6296   3.8191
     5.5155   5.9899

          k = 0.2100 0.0000 0.0000 (236297 PWs)   bands (ev):

   -27.8970 -27.6502 -26.6560 -26.5439 -18.2638 -15.0125 -13.4496 -10.7038
   -10.5921 -10.1470 -10.1009  -8.7185  -8.6574  -7.7233  -7.2348  -6.1847
    -6.1458  -5.5919  -5.1768  -4.6526  -4.2460  -4.1412   1.5691   3.8251
     5.4114   5.8962

          k = 0.2000 0.0000 0.0000 (236315 PWs)   bands (ev):

   -27.9219 -27.6721 -26.6538 -26.5415 -18.3143 -15.0609 -13.4501 -10.7401
   -10.4713 -10.1216 -10.1191  -8.6719  -8.5687  -7.7054  -7.2620  -6.1517
    -6.0872  -5.5515  -5.1152  -4.6357  -4.2296  -4.0566   1.5098   3.8348
     5.2998   5.8063

          k = 0.1900 0.0000 0.0000 (236307 PWs)   bands (ev):

   -27.9460 -27.6933 -26.6520 -26.5394 -18.3624 -15.1071 -13.4534 -10.7752
   -10.3482 -10.1417 -10.0955  -8.6281  -8.4780  -7.6894  -7.2884  -6.1162
    -6.0282  -5.5141  -5.0542  -4.6179  -4.2156  -3.9701   1.4519   3.8482
     5.1821   5.7200

          k = 0.1800 0.0000 0.0000 (236299 PWs)   bands (ev):

   -27.9691 -27.7136 -26.6506 -26.5376 -18.4080 -15.1511 -13.4589 -10.8090
   -10.2237 -10.1612 -10.0755  -8.5872  -8.3862  -7.6754  -7.3141  -6.0782
    -5.9692  -5.4798  -4.9945  -4.5989  -4.2042  -3.8822   1.3955   3.8652
     5.0596   5.6374

          k = 0.1700 0.0000 0.0000 (236327 PWs)   bands (ev):

   -27.9913 -27.7330 -26.6495 -26.5361 -18.4513 -15.1928 -13.4661 -10.8414
   -10.1800 -10.0988 -10.0587  -8.5492  -8.2942  -7.6633  -7.3389  -6.0380
    -5.9105  -5.4484  -4.9369  -4.5781  -4.1952  -3.7930   1.3408   3.8855
     4.9335   5.5584

          k = 0.1600 0.0000 0.0000 (236293 PWs)   bands (ev):

   -28.0124 -27.7516 -26.6486 -26.5349 -18.4921 -15.2321 -13.4745 -10.8724
   -10.1981 -10.0446  -9.9742  -8.5141  -8.2027  -7.6532  -7.3625  -5.9958
    -5.8525  -5.4200  -4.8824  -4.5548  -4.1887  -3.7032   1.2878   3.9090
     4.8048   5.3958

          k = 0.1500 0.0000 0.0000 (236295 PWs)   bands (ev):

   -28.0324 -27.7692 -26.6480 -26.5339 -18.5305 -15.2692 -13.4838 -10.9017
   -10.2153 -10.0328  -9.8509  -8.4819  -8.1125  -7.6451  -7.3851  -5.9520
    -5.7957  -5.3943  -4.8322  -4.5282  -4.1848  -3.6133   1.2368   3.9354
     4.6748   5.1758

          k = 0.1400 0.0000 0.0000 (236253 PWs)   bands (ev):

   -28.0512 -27.7858 -26.6476 -26.5331 -18.5664 -15.3040 -13.4936 -10.9295
   -10.2317 -10.0229  -9.7297  -8.4526  -8.0243  -7.6390  -7.4065  -5.9069
    -5.7403  -5.3713  -4.7874  -4.4974  -4.1832  -3.5237   1.1879   3.9645
     4.5446   4.9621

          k = 0.1300 0.0000 0.0000 (236277 PWs)   bands (ev):

   -28.0690 -27.8014 -26.6474 -26.5325 -18.5999 -15.3364 -13.5037 -10.9555
   -10.2472 -10.0146  -9.6113  -8.4261  -7.9388  -7.6348  -7.4266  -5.8609
    -5.6869  -5.3508  -4.7489  -4.4620  -4.1840  -3.4351   1.1412   3.9961
     4.4154   4.7560

          k = 0.1200 0.0000 0.0000 (236255 PWs)   bands (ev):

   -28.0855 -27.8160 -26.6473 -26.5321 -18.6310 -15.3664 -13.5138 -10.9798
   -10.2617 -10.0077  -9.4965  -8.4023  -7.8567  -7.6326  -7.4454  -5.8146
    -5.6356  -5.3327  -4.7169  -4.4222  -4.1870  -3.3481   1.0969   4.0299
     4.2883   4.5585

          k = 0.1100 0.0000 0.0000 (236215 PWs)   bands (ev):

   -28.1009 -27.8295 -26.6473 -26.5318 -18.6596 -15.3942 -13.5237 -11.0024
   -10.2753 -10.0020  -9.3862  -8.3810  -7.7786  -7.6322  -7.4628  -5.7684
    -5.5869  -5.3168  -4.6908  -4.3791  -4.1919  -3.2635   1.0553   4.0655
     4.1647   4.3709

          k = 0.1000 0.0000 0.0000 (236219 PWs)   bands (ev):

   -28.1150 -27.8419 -26.6475 -26.5316 -18.6857 -15.4195 -13.5333 -11.0231
   -10.2878  -9.9973  -9.2811  -8.3621  -7.7051  -7.6336  -7.4788  -5.7229
    -5.5411  -5.3030  -4.6698  -4.3340  -4.1986  -3.1821   1.0164   4.0459
     4.1026   4.1944

          k = 0.0900 0.0000 0.0000 (236215 PWs)   bands (ev):

   -28.1278 -27.8532 -26.6476 -26.5315 -18.7093 -15.4424 -13.5423 -11.0419
   -10.2992  -9.9934  -9.1819  -8.3455  -7.6367  -7.6366  -7.4934  -5.6787
    -5.4986  -5.2912  -4.6529  -4.2885  -4.2067  -3.1046   0.9806   3.9330
     4.0299   4.1409

          k = 0.0800 0.0000 0.0000 (236243 PWs)   bands (ev):

   -28.1394 -27.8633 -26.6479 -26.5314 -18.7305 -15.4630 -13.5507 -11.0588
   -10.3095  -9.9903  -9.0895  -8.3311  -7.6413  -7.5738  -7.5065  -5.6364
    -5.4596  -5.2812  -4.6391  -4.2440  -4.2159  -3.0319   0.9479   3.8274
     3.8788   4.1800

          k = 0.0700 0.0000 0.0000 (236259 PWs)   bands (ev):

   -28.1496 -27.8723 -26.6481 -26.5314 -18.7491 -15.4812 -13.5583 -11.0738
   -10.3186  -9.9877  -9.0048  -8.3187  -7.6471  -7.5182  -7.5171  -5.5967
    -5.4244  -5.2728  -4.6280  -4.2258  -4.2018  -2.9649   0.9186   3.7303
     3.7422   4.2192

          k = 0.0600 0.0000 0.0000 (236217 PWs)   bands (ev):

   -28.1585 -27.8802 -26.6484 -26.5315 -18.7653 -15.4969 -13.5650 -11.0869
   -10.3266  -9.9856  -8.9285  -8.3082  -7.6539  -7.5283  -7.4669  -5.5603
    -5.3933  -5.2658  -4.6189  -4.2358  -4.1629  -2.9044   0.8928   3.6210
     3.6431   4.2582

          k = 0.0500 0.0000 0.0000 (236227 PWs)   bands (ev):

   -28.1661 -27.8868 -26.6486 -26.5315 -18.7791 -15.5102 -13.5709 -11.0980
   -10.3334  -9.9840  -8.8616  -8.2996  -7.6610  -7.5369  -7.4237  -5.5278
    -5.3666  -5.2603  -4.6116  -4.2456  -4.1283  -2.8515   0.8707   3.5164
     3.5670   4.2962

          k = 0.0400 0.0000 0.0000 (236255 PWs)   bands (ev):

   -28.1723 -27.8923 -26.6489 -26.5316 -18.7903 -15.5212 -13.5757 -11.1071
   -10.3390  -9.9828  -8.8051  -8.2926  -7.6681  -7.5440  -7.3879  -5.5001
    -5.3444  -5.2559  -4.6059  -4.2545  -4.0989  -2.8068   0.8523   3.4294
     3.5029   4.3321

          k = 0.0300 0.0000 0.0000 (236201 PWs)   bands (ev):

   -28.1771 -27.8966 -26.6491 -26.5316 -18.7990 -15.5297 -13.5796 -11.1141
   -10.3434  -9.9818  -8.7598  -8.2873  -7.6745  -7.5495  -7.3597  -5.4777
    -5.3269  -5.2527  -4.6017  -4.2622  -4.0752  -2.7712   0.8380   3.3608
     3.4520   4.3645

          k = 0.0200 0.0000 0.0000 (236245 PWs)   bands (ev):

   -28.1806 -27.8996 -26.6492 -26.5317 -18.8052 -15.5357 -13.5823 -11.1192
   -10.3465  -9.9812  -8.7268  -8.2835  -7.6797  -7.5534  -7.3393  -5.4613
    -5.3144  -5.2504  -4.5986  -4.2680  -4.0578  -2.7452   0.8276   3.3112
     3.4150   4.3912

          k = 0.0100 0.0000 0.0000 (236227 PWs)   bands (ev):

   -28.1826 -27.9015 -26.6493 -26.5317 -18.8090 -15.5394 -13.5840 -11.1223
   -10.3484  -9.9808  -8.7066  -8.2812  -7.6830  -7.5558  -7.3270  -5.4512
    -5.3068  -5.2491  -4.5969  -4.2716  -4.0473  -2.7294   0.8214   3.2813
     3.3925   4.4094

          k = 0.0000 0.0000 0.0000 (236167 PWs)   bands (ev):

   -28.1833 -27.9021 -26.6493 -26.5317 -18.8102 -15.5406 -13.5845 -11.1233
   -10.3490  -9.9807  -8.6998  -8.2805  -7.6842  -7.5566  -7.3229  -5.4478
    -5.3043  -5.2487  -4.5963  -4.2729  -4.0437  -2.7241   0.8193   3.2713
     3.3850   4.4159

          k = 0.0000 0.0105 0.0000 (236217 PWs)   bands (ev):

   -28.1827 -27.9016 -26.6501 -26.5325 -18.8089 -15.5461 -13.5799 -11.1223
   -10.3464  -9.9816  -8.6987  -8.2808  -7.6864  -7.5543  -7.3232  -5.4489
    -5.3051  -5.2518  -4.5977  -4.2719  -4.0428  -2.7254   0.8226   3.2718
     3.3849   4.4201

          k = 0.0000 0.0209 0.0000 (236223 PWs)   bands (ev):

   -28.1806 -27.9001 -26.6526 -26.5348 -18.8047 -15.5625 -13.5661 -11.1195
   -10.3385  -9.9842  -8.6953  -8.2816  -7.6932  -7.5474  -7.3242  -5.4523
    -5.3075  -5.2613  -4.6020  -4.2690  -4.0401  -2.7290   0.8324   3.2736
     3.3846   4.4328

          k = 0.0000 0.0314 0.0000 (236233 PWs)   bands (ev):

   -28.1772 -27.8976 -26.6567 -26.5386 -18.7979 -15.5893 -13.5437 -11.1149
   -10.3255  -9.9885  -8.6898  -8.2830  -7.7041  -7.5363  -7.3257  -5.4578
    -5.3115  -5.2766  -4.6090  -4.2645  -4.0356  -2.7350   0.8487   3.2765
     3.3841   4.4537

          k = 0.0000 0.0418 0.0000 (236289 PWs)   bands (ev):

   -28.1725 -27.8941 -26.6624 -26.5440 -18.7883 -15.6257 -13.5132 -11.1088
   -10.3074  -9.9942  -8.6820  -8.2850  -7.7190  -7.5212  -7.3279  -5.4654
    -5.3171  -5.2976  -4.6187  -4.2587  -4.0293  -2.7433   0.8714   3.2805
     3.3833   4.4829

          k = 0.0000 0.0523 0.0000 (236297 PWs)   bands (ev):

   -28.1664 -27.8897 -26.6696 -26.5509 -18.7760 -15.6708 -13.4757 -11.1013
   -10.2845 -10.0011  -8.6721  -8.2876  -7.7378  -7.5022  -7.3309  -5.4749
    -5.3241  -5.3235  -4.6307  -4.2523  -4.0213  -2.7539   0.9003   3.2857
     3.3822   4.5202

          k = 0.0000 0.0627 0.0000 (236309 PWs)   bands (ev):

   -28.1591 -27.8844 -26.6784 -26.5592 -18.7610 -15.7236 -13.4318 -11.0928
   -10.2569 -10.0088  -8.6599  -8.2910  -7.7603  -7.4795  -7.3346  -5.4863
    -5.3539  -5.3326  -4.6449  -4.2457  -4.0116  -2.7666   0.9351   3.2921
     3.3807   4.5654

          k = 0.0000 0.0732 0.0000 (236299 PWs)   bands (ev):

   -28.1504 -27.8782 -26.6885 -26.5688 -18.7432 -15.7830 -13.3826 -11.0838
   -10.2248 -10.0169  -8.6457  -8.2952  -7.7865  -7.4532  -7.3392  -5.4992
    -5.3881  -5.3425  -4.6610  -4.2395  -4.0003  -2.7815   0.9757   3.2996
     3.3788   4.6184

          k = 0.0000 0.0836 0.0000 (236313 PWs)   bands (ev):

   -28.1405 -27.8712 -26.7000 -26.5799 -18.7228 -15.8482 -13.3289 -11.0747
   -10.1886 -10.0249  -8.6293  -8.3002  -7.8163  -7.4233  -7.3448  -5.5136
    -5.4256  -5.3536  -4.6786  -4.2342  -3.9874  -2.7983   1.0217   3.3082
     3.3762   4.6788

          k = 0.0000 0.0941 0.0000 (236339 PWs)   bands (ev):

   -28.1294 -27.8635 -26.7128 -26.5922 -18.6997 -15.9181 -13.2713 -11.0662
   -10.1485 -10.0321  -8.6109  -8.3061  -7.8496  -7.3900  -7.3515  -5.5292
    -5.4657  -5.3659  -4.6975  -4.2304  -3.9730  -2.8169   1.0730   3.3179
     3.3730   4.7464

          k = 0.0000 0.1045 0.0000 (236351 PWs)   bands (ev):

   -28.1172 -27.8550 -26.7267 -26.6057 -18.6739 -15.9921 -13.2106 -11.0590
   -10.1049 -10.0378  -8.5904  -8.3132  -7.8864  -7.3593  -7.3535  -5.5457
    -5.5079  -5.3793  -4.7171  -4.2284  -3.9572  -2.8373   1.1291   3.3288
     3.3689   4.7708

          k = 0.0000 0.1150 0.0000 (236337 PWs)   bands (ev):

   -28.1038 -27.8459 -26.7416 -26.6204 -18.6454 -16.0694 -13.1472 -11.0538
   -10.0581 -10.0413  -8.5680  -8.3214  -7.9266  -7.3684  -7.3139  -5.5628
    -5.5517  -5.3937  -4.7372  -4.2288  -3.9400  -2.8593   1.1898   3.3408
     3.3638   4.7626

          k = 0.0000 0.1255 0.0000 (236351 PWs)   bands (ev):

   -28.0893 -27.8364 -26.7573 -26.6361 -18.6143 -16.1494 -13.0816 -11.0517
   -10.0416 -10.0085  -8.5436  -8.3309  -7.9700  -7.3790  -7.2714  -5.5968
    -5.5803  -5.4090  -4.7573  -4.2317  -3.9214  -2.8827   1.2547   3.3538
     3.3576   4.7473

          k = 0.0000 0.1359 0.0000 (236385 PWs)   bands (ev):

   -28.0739 -27.8264 -26.7738 -26.6527 -18.5807 -16.2314 -13.0142 -11.0532
   -10.0380  -9.9564  -8.5173  -8.3418  -8.0165  -7.3911  -7.2262  -5.6426
    -5.5979  -5.4250  -4.7770  -4.2374  -3.9016  -2.9075   1.3235   3.3499
     3.3680   4.7239

          k = 0.0000 0.1464 0.0000 (236377 PWs)   bands (ev):

   -28.0575 -27.8161 -26.7907 -26.6702 -18.5444 -16.3151 -12.9454 -11.0593
   -10.0297  -9.9023  -8.4893  -8.3543  -8.0659  -7.4049  -7.1786  -5.6888
    -5.6153  -5.4417  -4.7959  -4.2462  -3.8807  -2.9336   1.3958   3.3406
     3.3833   4.6919

          k = 0.0000 0.1568 0.0000 (236341 PWs)   bands (ev):

   -28.0402 -27.8057 -26.8081 -26.6884 -18.5055 -16.4000 -12.8753 -11.0704
   -10.0161  -9.8465  -8.4595  -8.3684  -8.1181  -7.4205  -7.1290  -5.7352
    -5.6321  -5.4589  -4.8135  -4.2582  -3.8586  -2.9607   1.4713   3.3295
     3.3997   4.6517

          k = 0.0000 0.1673 0.0000 (236345 PWs)   bands (ev):

   -28.0222 -27.7953 -26.8255 -26.7072 -18.4641 -16.4858 -12.8041 -11.0871
    -9.9969  -9.7894  -8.4281  -8.3843  -8.1728  -7.4380  -7.0776  -5.7814
    -5.6481  -5.4766  -4.8295  -4.2734  -3.8354  -2.9888   1.5496   3.3161
     3.4172   4.6042

          k = 0.0000 0.1777 0.0000 (236315 PWs)   bands (ev):

   -28.0035 -27.7851 -26.8429 -26.7265 -18.4202 -16.5720 -12.7322 -11.1094
    -9.9719  -9.7315  -8.4021  -8.3951  -8.2298  -7.4574  -7.0248  -5.8271
    -5.6630  -5.4945  -4.8434  -4.2919  -3.8113  -3.0178   1.6304   3.3003
     3.4358   4.5506

          k = 0.0000 0.1882 0.0000 (236339 PWs)   bands (ev):

   -27.9843 -27.7753 -26.8599 -26.7462 -18.3738 -16.6585 -12.6597 -11.1374
    -9.9411  -9.6731  -8.4219  -8.3607  -8.2886  -7.4789  -6.9709  -5.8723
    -5.6767  -5.5127  -4.8549  -4.3135  -3.7862  -3.0475   1.7133   3.2816
     3.4555   4.4924

          k = 0.0000 0.1986 0.0000 (236349 PWs)   bands (ev):

   -27.9646 -27.7661 -26.8763 -26.7660 -18.3250 -16.7449 -12.5866 -11.1708
    -9.9049  -9.6149  -8.4438  -8.3490  -8.3249  -7.5024  -6.9165  -5.9168
    -5.6889  -5.5308  -4.8636  -4.3382  -3.7602  -3.0779   1.7979   3.2598
     3.4765   4.4308

          k = 0.0000 0.2091 0.0000 (236349 PWs)   bands (ev):

   -27.9446 -27.7578 -26.8918 -26.7858 -18.2738 -16.8310 -12.5131 -11.2094
    -9.8637  -9.5573  -8.4677  -8.4105  -8.2878  -7.5280  -6.8618  -5.9605
    -5.6993  -5.5490  -4.8691  -4.3657  -3.7334  -3.1089   1.8839   3.2345
     3.4986   4.3673

          k = 0.0000 0.2195 0.0000 (236355 PWs)   bands (ev):

   -27.9245 -27.7505 -26.9061 -26.8055 -18.2202 -16.9167 -12.4395 -11.2527
    -9.8178  -9.5009  -8.4938  -8.4724  -8.2497  -7.5557  -6.8072  -6.0033
    -5.7080  -5.5669  -4.8711  -4.3959  -3.7058  -3.1404   1.9709   3.2053
     3.5220   4.3030

          k = 0.0000 0.2300 0.0000 (236339 PWs)   bands (ev):

   -27.9043 -27.7446 -26.9189 -26.8249 -18.1642 -17.0016 -12.3657 -11.3003
    -9.7681  -9.4467  -8.5341  -8.5219  -8.2105  -7.5854  -6.7532  -6.0452
    -5.7147  -5.5845  -4.8695  -4.4283  -3.6775  -3.1722   2.0585   3.1717
     3.5467   4.2389

          k = 0.0000 0.2405 0.0000 (236307 PWs)   bands (ev):

   -27.8843 -27.7402 -26.9300 -26.8437 -18.1060 -17.0857 -12.2919 -11.3517
    -9.7150  -9.3956  -8.5944  -8.5520  -8.1705  -7.6170  -6.7001  -6.0864
    -5.7194  -5.6016  -4.8639  -4.4627  -3.6486  -3.2043   2.1463   3.1336
     3.5728   4.1759

          k = 0.0000 0.2509 0.0000 (236275 PWs)   bands (ev):

   -27.8648 -27.7377 -26.9390 -26.8618 -18.0456 -17.1688 -12.2183 -11.4066
    -9.6592  -9.3492  -8.6517  -8.5838  -8.1297  -7.6504  -6.6482  -6.1270
    -5.7221  -5.6181  -4.8543  -4.4986  -3.6190  -3.2367   2.2338   3.0906
     3.6004   4.1147

          k = 0.0000 0.2614 0.0000 (236231 PWs)   bands (ev):

   -27.8457 -27.7371 -26.9457 -26.8788 -17.9829 -17.2507 -12.1450 -11.4645
    -9.6016  -9.3099  -8.7038  -8.6170  -8.0885  -7.6854  -6.5977  -6.1670
    -5.7227  -5.6340  -4.8406  -4.5355  -3.5889  -3.2693   2.3207   3.0425
     3.6297   4.0559

          k = 0.0000 0.2718 0.0000 (236220 PWs)   bands (ev):

   -27.8276 -27.7388 -26.9499 -26.8947 -17.9181 -17.3314 -12.0721 -11.5251
    -9.5430  -9.2808  -8.7474  -8.6512  -8.0468  -7.7220  -6.5488  -6.2068
    -5.7213  -5.6489  -4.8228  -4.5729  -3.5583  -3.3019   2.4064   2.9892
     3.6608   3.9999

          k = 0.0000 0.2823 0.0000 (236246 PWs)   bands (ev):

   -27.8104 -27.7426 -26.9516 -26.9090 -17.8513 -17.4107 -11.9998 -11.5880
    -9.4844  -9.2661  -8.7782  -8.6856  -8.0049  -7.7599  -6.5015  -6.2466
    -5.7180  -5.6629  -4.8012  -4.6103  -3.5272  -3.3345   2.4904   2.9308
     3.6939   3.9470

          k = 0.0000 0.2927 0.0000 (236214 PWs)   bands (ev):

   -27.7946 -27.7488 -26.9506 -26.9217 -17.7824 -17.4884 -11.9282 -11.6530
    -9.4273  -9.2691  -8.7929  -8.7191  -7.9630  -7.7990  -6.4558  -6.2868
    -5.7129  -5.6757  -4.7760  -4.6470  -3.4958  -3.3671   2.5723   2.8675
     3.7292   3.8973

          k = 0.0000 0.3032 0.0000 (236250 PWs)   bands (ev):

   -27.7803 -27.7572 -26.9470 -26.9324 -17.7117 -17.5646 -11.8575 -11.7197
    -9.3738  -9.2904  -8.7909  -8.7498  -7.9213  -7.8391  -6.4117  -6.3274
    -5.7059  -5.6872  -4.7475  -4.6825  -3.4640  -3.3996   2.6515   2.7996
     3.7670   3.8509

          k = 0.0000 0.3136 0.0000 (236236 PWs)   bands (ev):

   -27.7678 -27.7678 -26.9409 -26.9409 -17.6390 -17.6390 -11.7880 -11.7880
    -9.3268  -9.3268  -8.7750  -8.7750  -7.8799  -7.8799  -6.3690  -6.3690
    -5.6974  -5.6974  -4.7162  -4.7162  -3.4319  -3.4319   2.7274   2.7274
     3.8075   3.8075

          k = 0.0100 0.3136 0.0000 (236228 PWs)   bands (ev):

   -27.7672 -27.7672 -26.9407 -26.9407 -17.6378 -17.6378 -11.7876 -11.7876
    -9.3283  -9.3283  -8.7759  -8.7759  -7.8834  -7.8834  -6.3678  -6.3678
    -5.6983  -5.6983  -4.7165  -4.7165  -3.4361  -3.4361   2.7303   2.7303
     3.8142   3.8142

          k = 0.0200 0.3136 0.0000 (236204 PWs)   bands (ev):

   -27.7656 -27.7656 -26.9401 -26.9401 -17.6343 -17.6343 -11.7866 -11.7866
    -9.3328  -9.3328  -8.7787  -8.7787  -7.8938  -7.8938  -6.3643  -6.3643
    -5.7010  -5.7010  -4.7176  -4.7176  -3.4486  -3.4486   2.7387   2.7387
     3.8343   3.8343

          k = 0.0300 0.3136 0.0000 (236228 PWs)   bands (ev):

   -27.7628 -27.7628 -26.9391 -26.9391 -17.6285 -17.6285 -11.7850 -11.7850
    -9.3404  -9.3404  -8.7833  -8.7833  -7.9108  -7.9108  -6.3587  -6.3587
    -5.7055  -5.7055  -4.7194  -4.7194  -3.4691  -3.4691   2.7524   2.7524
     3.8679   3.8679

          k = 0.0400 0.3136 0.0000 (236254 PWs)   bands (ev):

   -27.7590 -27.7590 -26.9377 -26.9377 -17.6203 -17.6203 -11.7828 -11.7828
    -9.3513  -9.3513  -8.7898  -8.7898  -7.9336  -7.9336  -6.3511  -6.3511
    -5.7118  -5.7118  -4.7220  -4.7220  -3.4973  -3.4973   2.7706   2.7706
     3.9151   3.9151

          k = 0.0500 0.3136 0.0000 (236278 PWs)   bands (ev):

   -27.7540 -27.7540 -26.9359 -26.9359 -17.6098 -17.6098 -11.7800 -11.7800
    -9.3659  -9.3659  -8.7982  -8.7982  -7.9616  -7.9616  -6.3420  -6.3420
    -5.7197  -5.7197  -4.7254  -4.7254  -3.5324  -3.5324   2.7924   2.7924
     3.9758   3.9758

          k = 0.0600 0.3136 0.0000 (236306 PWs)   bands (ev):

   -27.7480 -27.7480 -26.9338 -26.9338 -17.5969 -17.5969 -11.7767 -11.7767
    -9.3845  -9.3845  -8.8085  -8.8085  -7.9938  -7.9938  -6.3317  -6.3317
    -5.7293  -5.7293  -4.7296  -4.7296  -3.5738  -3.5738   2.8172   2.8172
     4.0498   4.0498

          k = 0.0700 0.3136 0.0000 (236298 PWs)   bands (ev):

   -27.7409 -27.7409 -26.9312 -26.9312 -17.5817 -17.5817 -11.7730 -11.7730
    -9.4074  -9.4074  -8.8207  -8.8207  -8.0291  -8.0291  -6.3205  -6.3205
    -5.7403  -5.7403  -4.7348  -4.7348  -3.6207  -3.6207   2.8442   2.8442
     4.1368   4.1368

          k = 0.0800 0.3136 0.0000 (236306 PWs)   bands (ev):

   -27.7328 -27.7328 -26.9284 -26.9284 -17.5642 -17.5642 -11.7691 -11.7691
    -9.4353  -9.4353  -8.8348  -8.8348  -8.0663  -8.0663  -6.3089  -6.3089
    -5.7527  -5.7527  -4.7409  -4.7409  -3.6723  -3.6723   2.8727   2.8727
     4.2361   4.2361

          k = 0.0900 0.3136 0.0000 (236266 PWs)   bands (ev):

   -27.7236 -27.7236 -26.9252 -26.9252 -17.5444 -17.5444 -11.7649 -11.7649
    -9.4684  -9.4684  -8.8507  -8.8507  -8.1044  -8.1044  -6.2971  -6.2971
    -5.7664  -5.7664  -4.7482  -4.7482  -3.7277  -3.7277   2.9023   2.9023
     4.3468   4.3468

          k = 0.1000 0.3136 0.0000 (236262 PWs)   bands (ev):

   -27.7135 -27.7135 -26.9217 -26.9217 -17.5222 -17.5222 -11.7607 -11.7607
    -9.5074  -9.5074  -8.8685  -8.8685  -8.1422  -8.1422  -6.2855  -6.2855
    -5.7812  -5.7812  -4.7566  -4.7566  -3.7859  -3.7859   2.9326   2.9326
     4.4679   4.4679

          k = 0.1100 0.3136 0.0000 (236246 PWs)   bands (ev):

   -27.7023 -27.7023 -26.9179 -26.9179 -17.4978 -17.4978 -11.7567 -11.7567
    -9.5525  -9.5525  -8.8880  -8.8880  -8.1789  -8.1789  -6.2743  -6.2743
    -5.7971  -5.7971  -4.7664  -4.7664  -3.8461  -3.8461   2.9635   2.9635
     4.5979   4.5979

          k = 0.1200 0.3136 0.0000 (236270 PWs)   bands (ev):

   -27.6903 -27.6903 -26.9139 -26.9139 -17.4710 -17.4710 -11.7530 -11.7530
    -9.6039  -9.6039  -8.9092  -8.9092  -8.2134  -8.2134  -6.2638  -6.2638
    -5.8139  -5.8139  -4.7777  -4.7777  -3.9073  -3.9073   2.9949   2.9949
     4.7355   4.7355

          k = 0.1300 0.3136 0.0000 (236330 PWs)   bands (ev):

   -27.6772 -27.6772 -26.9096 -26.9096 -17.4420 -17.4420 -11.7500 -11.7500
    -9.6616  -9.6616  -8.9318  -8.9318  -8.2453  -8.2453  -6.2541  -6.2541
    -5.8314  -5.8314  -4.7907  -4.7907  -3.9688  -3.9688   3.0267   3.0267
     4.8789   4.8789

          k = 0.1400 0.3136 0.0000 (236314 PWs)   bands (ev):

   -27.6633 -27.6633 -26.9052 -26.9052 -17.4107 -17.4107 -11.7480 -11.7480
[...]
    -6.0178  -6.0178  -5.0707  -5.0707  -4.4727  -4.4727   3.4125   3.4125
     5.8615   5.8615

          k = 0.2500 0.3136 0.0000 (236224 PWs)   bands (ev):

   -27.4626 -27.4626 -26.8530 -26.8530 -16.9182 -16.9182 -11.9679 -11.9679
   -10.5294 -10.5294  -9.3020  -9.3020  -8.3935  -8.3935  -6.2957  -6.2957
    -6.0247  -6.0247  -5.1044  -5.1044  -4.4969  -4.4969   3.4511   3.4511
     5.8214   5.8214

          k = 0.2600 0.3136 0.0000 (236248 PWs)   bands (ev):

   -27.4412 -27.4412 -26.8490 -26.8490 -16.8603 -16.8603 -12.0315 -12.0315
   -10.5764 -10.5764  -9.3396  -9.3396  -8.3919  -8.3919  -6.3220  -6.3220
    -6.0288  -6.0288  -5.1378  -5.1378  -4.5184  -4.5184   3.4903   3.4903
     5.7765   5.7765

          k = 0.2700 0.3136 0.0000 (236260 PWs)   bands (ev):

   -27.4195 -27.4195 -26.8453 -26.8453 -16.8003 -16.8003 -12.1045 -12.1045
   -10.6148 -10.6148  -9.3778  -9.3778  -8.3891  -8.3891  -6.3520  -6.3520
    -6.0303  -6.0303  -5.1706  -5.1706  -4.5376  -4.5376   3.5299   3.5299
     5.7293   5.7293

          k = 0.2800 0.3136 0.0000 (236244 PWs)   bands (ev):

   -27.3976 -27.3976 -26.8419 -26.8419 -16.7383 -16.7383 -12.1863 -12.1863
   -10.6449 -10.6449  -9.4165  -9.4165  -8.3854  -8.3854  -6.3850  -6.3850
    -6.0296  -6.0296  -5.2024  -5.2024  -4.5547  -4.5547   3.5698   3.5698
     5.6813   5.6813

          k = 0.2900 0.3136 0.0000 (236240 PWs)   bands (ev):

   -27.3755 -27.3755 -26.8389 -26.8389 -16.6742 -16.6742 -12.2761 -12.2761
   -10.6674 -10.6674  -9.4555  -9.4555  -8.3809  -8.3809  -6.4204  -6.4204
    -6.0269  -6.0269  -5.2332  -5.2332  -4.5700  -4.5700   3.6100   3.6100
     5.6336   5.6336

          k = 0.3000 0.3136 0.0000 (236224 PWs)   bands (ev):

   -27.3534 -27.3534 -26.8364 -26.8364 -16.6081 -16.6081 -12.3729 -12.3729
   -10.6829 -10.6829  -9.4946  -9.4946  -8.3757  -8.3757  -6.4576  -6.4576
    -6.0225  -6.0225  -5.2629  -5.2629  -4.5837  -4.5837   3.6504   3.6504
     5.5868   5.5868

          k = 0.3100 0.3136 0.0000 (236208 PWs)   bands (ev):

   -27.3311 -27.3311 -26.8343 -26.8343 -16.5400 -16.5400 -12.4755 -12.4755
   -10.6924 -10.6924  -9.5338  -9.5338  -8.3700  -8.3700  -6.4961  -6.4961
    -6.0166  -6.0166  -5.2915  -5.2915  -4.5961  -4.5961   3.6909   3.6909
     5.5413   5.5413

          k = 0.3200 0.3136 0.0000 (236138 PWs)   bands (ev):

   -27.3089 -27.3089 -26.8327 -26.8327 -16.4699 -16.4699 -12.5828 -12.5828
   -10.6968 -10.6968  -9.5729  -9.5729  -8.3638  -8.3638  -6.5354  -6.5354
    -6.0094  -6.0094  -5.3190  -5.3190  -4.6073  -4.6073   3.7313   3.7313
     5.4976   5.4976

          k = 0.3300 0.3136 0.0000 (236138 PWs)   bands (ev):

   -27.2868 -27.2868 -26.8317 -26.8317 -16.3980 -16.3980 -12.6938 -12.6938
   -10.6969 -10.6969  -9.6116  -9.6116  -8.3574  -8.3574  -6.5750  -6.5750
    -6.0010  -6.0010  -5.3456  -5.3456  -4.6174  -4.6174   3.7714   3.7714
     5.4558   5.4558

          k = 0.3400 0.3136 0.0000 (236120 PWs)   bands (ev):

   -27.2648 -27.2648 -26.8312 -26.8312 -16.3242 -16.3242 -12.8076 -12.8076
   -10.6934 -10.6934  -9.6498  -9.6498  -8.3508  -8.3508  -6.6144  -6.6144
    -5.9915  -5.9915  -5.3713  -5.3713  -4.6265  -4.6265   3.8112   3.8112
     5.4163   5.4163

          k = 0.3500 0.3136 0.0000 (236122 PWs)   bands (ev):

   -27.2431 -27.2431 -26.8313 -26.8313 -16.2487 -16.2487 -12.9233 -12.9233
   -10.6870 -10.6870  -9.6873  -9.6873  -8.3441  -8.3441  -6.6532  -6.6532
    -5.9810  -5.9810  -5.3962  -5.3962  -4.6348  -4.6348   3.8503   3.8503
     5.3792   5.3792

          k = 0.3600 0.3136 0.0000 (236086 PWs)   bands (ev):

   -27.2216 -27.2216 -26.8321 -26.8321 -16.1714 -16.1714 -13.0403 -13.0403
   -10.6784 -10.6784  -9.7240  -9.7240  -8.3373  -8.3373  -6.6911  -6.6911
    -5.9695  -5.9695  -5.4205  -5.4205  -4.6422  -4.6422   3.8886   3.8886
     5.3448   5.3448

          k = 0.3700 0.3136 0.0000 (236054 PWs)   bands (ev):

   -27.2005 -27.2005 -26.8334 -26.8334 -16.0926 -16.0926 -13.1578 -13.1578
   -10.6679 -10.6679  -9.7598  -9.7598  -8.3307  -8.3307  -6.7278  -6.7278
    -5.9572  -5.9572  -5.4443  -5.4443  -4.6489  -4.6489   3.9258   3.9258
     5.3130   5.3130

          k = 0.3800 0.3136 0.0000 (236040 PWs)   bands (ev):

   -27.1799 -27.1799 -26.8354 -26.8354 -16.0123 -16.0123 -13.2752 -13.2752
   -10.6560 -10.6560  -9.7943  -9.7943  -8.3242  -8.3242  -6.7629  -6.7629
    -5.9441  -5.9441  -5.4675  -5.4675  -4.6548  -4.6548   3.9616   3.9616
     5.2840   5.2840

          k = 0.3900 0.3136 0.0000 (236096 PWs)   bands (ev):

   -27.1598 -27.1598 -26.8380 -26.8380 -15.9308 -15.9308 -13.3921 -13.3921
   -10.6432 -10.6432  -9.8275  -9.8275  -8.3180  -8.3180  -6.7961  -6.7961
    -5.9303  -5.9303  -5.4903  -5.4903  -4.6601  -4.6601   3.9959   3.9959
     5.2579   5.2579

          k = 0.4000 0.3136 0.0000 (236078 PWs)   bands (ev):

   -27.1403 -27.1403 -26.8413 -26.8413 -15.8483 -15.8483 -13.5077 -13.5077
   -10.6297 -10.6297  -9.8592  -9.8592  -8.3121  -8.3121  -6.8273  -6.8273
    -5.9157  -5.9157  -5.5128  -5.5128  -4.6648  -4.6648   4.0283   4.0283
     5.2348   5.2348

          k = 0.4100 0.3136 0.0000 (236054 PWs)   bands (ev):

   -27.1215 -27.1215 -26.8451 -26.8451 -15.7650 -15.7650 -13.6217 -13.6217
   -10.6159 -10.6159  -9.8891  -9.8891  -8.3065  -8.3065  -6.8562  -6.8562
    -5.9006  -5.9006  -5.5348  -5.5348  -4.6690  -4.6690   4.0585   4.0585
     5.2145   5.2145

          k = 0.4200 0.3136 0.0000 (236030 PWs)   bands (ev):

   -27.1036 -27.1036 -26.8495 -26.8495 -15.6815 -15.6815 -13.7331 -13.7331
   -10.6022 -10.6022  -9.9171  -9.9171  -8.3013  -8.3013  -6.8825  -6.8825
    -5.8849  -5.8849  -5.5566  -5.5566  -4.6726  -4.6726   4.0862   4.0862
     5.1971   5.1971

          k = 0.4300 0.3136 0.0000 (236028 PWs)   bands (ev):

   -27.0867 -27.0867 -26.8544 -26.8544 -15.5984 -15.5984 -13.8413 -13.8413
   -10.5888 -10.5888  -9.9429  -9.9429  -8.2967  -8.2967  -6.9061  -6.9061
    -5.8688  -5.8688  -5.5780  -5.5780  -4.6757  -4.6757   4.1113   4.1113
     5.1825   5.1825

          k = 0.4400 0.3136 0.0000 (236026 PWs)   bands (ev):

   -27.0709 -27.0709 -26.8595 -26.8595 -15.5165 -15.5165 -13.9452 -13.9452
   -10.5762 -10.5762  -9.9662  -9.9662  -8.2925  -8.2925  -6.9269  -6.9269
    -5.8523  -5.8523  -5.5989  -5.5989  -4.6783  -4.6783   4.1334   4.1334
     5.1704   5.1704

          k = 0.4500 0.3136 0.0000 (236046 PWs)   bands (ev):

   -27.0565 -27.0565 -26.8649 -26.8649 -15.4373 -15.4373 -14.0433 -14.0433
   -10.5645 -10.5645  -9.9867  -9.9867  -8.2889  -8.2889  -6.9448  -6.9448
    -5.8356  -5.8356  -5.6193  -5.6193  -4.6805  -4.6805   4.1524   4.1524
     5.1608   5.1608

          k = 0.4600 0.3136 0.0000 (236056 PWs)   bands (ev):

   -27.0438 -27.0438 -26.8701 -26.8701 -15.3628 -15.3628 -14.1333 -14.1333
   -10.5543 -10.5543 -10.0042 -10.0042  -8.2859  -8.2859  -6.9595  -6.9595
    -5.8189  -5.8189  -5.6390  -5.6390  -4.6822  -4.6822   4.1681   4.1681
     5.1533   5.1533

          k = 0.4700 0.3136 0.0000 (236040 PWs)   bands (ev):

   -27.0331 -27.0331 -26.8750 -26.8750 -15.2961 -15.2961 -14.2122 -14.2122
   -10.5459 -10.5459 -10.0182 -10.0182  -8.2836  -8.2836  -6.9710  -6.9710
    -5.8027  -5.8027  -5.6575  -5.6575  -4.6835  -4.6835   4.1804   4.1804
     5.1478   5.1478

          k = 0.4800 0.3136 0.0000 (236040 PWs)   bands (ev):

   -27.0249 -27.0249 -26.8790 -26.8790 -15.2416 -15.2416 -14.2754 -14.2754
   -10.5396 -10.5396 -10.0285 -10.0285  -8.2819  -8.2819  -6.9793  -6.9793
    -5.7879  -5.7879  -5.6740  -5.6740  -4.6845  -4.6845   4.1893   4.1893
     5.1441   5.1441

          k = 0.4900 0.3136 0.0000 (236058 PWs)   bands (ev):

   -27.0197 -27.0197 -26.8816 -26.8816 -15.2052 -15.2052 -14.3171 -14.3171
   -10.5357 -10.5357 -10.0349 -10.0349  -8.2808  -8.2808  -6.9843  -6.9843
    -5.7765  -5.7765  -5.6864  -5.6864  -4.6850  -4.6850   4.1946   4.1946
     5.1419   5.1419

          k = 0.5000 0.3136 0.0000 (236036 PWs)   bands (ev):

   -27.0179 -27.0179 -26.8826 -26.8826 -15.1923 -15.1923 -14.3318 -14.3318
   -10.5343 -10.5343 -10.0370 -10.0370  -8.2805  -8.2805  -6.9860  -6.9860
    -5.7718  -5.7718  -5.6914  -5.6914  -4.6852  -4.6852   4.1964   4.1964
     5.1412   5.1412

          k = 0.5000 0.3032 0.0000 (236028 PWs)   bands (ev):

   -27.0180 -27.0180 -26.8826 -26.8826 -15.1961 -15.1961 -14.3261 -14.3261
   -10.5344 -10.5344 -10.0363 -10.0363  -8.2820  -8.2820  -6.9847  -6.9847
    -5.7868  -5.7868  -5.6807  -5.6807  -4.6850  -4.6850   4.1953   4.1953
     5.1387   5.1387

          k = 0.5000 0.2927 0.0000 (236040 PWs)   bands (ev):

   -27.0181 -27.0181 -26.8827 -26.8827 -15.2075 -15.2075 -14.3092 -14.3092
   -10.5344 -10.5344 -10.0344 -10.0344  -8.2866  -8.2866  -6.9809  -6.9809
    -5.8200  -5.8200  -5.6603  -5.6603  -4.6842  -4.6842   4.1921   4.1921
     5.1316   5.1316

          k = 0.5000 0.2823 0.0000 (235976 PWs)   bands (ev):

   -27.0183 -27.0183 -26.8828 -26.8828 -15.2254 -15.2254 -14.2821 -14.2821
   -10.5347 -10.5347 -10.0311 -10.0311  -8.2943  -8.2943  -6.9745  -6.9745
    -5.8611  -5.8611  -5.6403  -5.6403  -4.6830  -4.6830   4.1867   4.1867
     5.1205   5.1205

          k = 0.5000 0.2718 0.0000 (235988 PWs)   bands (ev):

   -27.0186 -27.0186 -26.8829 -26.8829 -15.2487 -15.2487 -14.2460 -14.2460
   -10.5352 -10.5352 -10.0264 -10.0264  -8.3049  -8.3049  -6.9656  -6.9656
    -5.9071  -5.9071  -5.6234  -5.6234  -4.6816  -4.6816   4.1791   4.1791
     5.1066   5.1066

          k = 0.5000 0.2614 0.0000 (236000 PWs)   bands (ev):

   -27.0190 -27.0190 -26.8831 -26.8831 -15.2761 -15.2761 -14.2021 -14.2021
   -10.5361 -10.5361 -10.0202 -10.0202  -8.3185  -8.3185  -6.9543  -6.9543
    -5.9567  -5.9567  -5.6104  -5.6104  -4.6802  -4.6802   4.1690   4.1690
     5.0912   5.0912

          k = 0.5000 0.2509 0.0000 (236034 PWs)   bands (ev):

   -27.0194 -27.0194 -26.8833 -26.8833 -15.3065 -15.3065 -14.1518 -14.1518
   -10.5376 -10.5376 -10.0124 -10.0124  -8.3349  -8.3349  -6.9405  -6.9405
    -6.0091  -6.0091  -5.6015  -5.6015  -4.6790  -4.6790   4.1566   4.1566
     5.0756   5.0756

          k = 0.5000 0.2405 0.0000 (236034 PWs)   bands (ev):

   -27.0199 -27.0199 -26.8836 -26.8836 -15.3388 -15.3388 -14.0960 -14.0960
   -10.5400 -10.5400 -10.0030 -10.0030  -8.3541  -8.3541  -6.9245  -6.9245
    -6.0637  -6.0637  -5.5966  -5.5966  -4.6783  -4.6783   4.1417   4.1417
     5.0612   5.0612

          k = 0.5000 0.2300 0.0000 (236028 PWs)   bands (ev):

   -27.0205 -27.0205 -26.8838 -26.8838 -15.3722 -15.3722 -14.0358 -14.0358
   -10.5436 -10.5436  -9.9918  -9.9918  -8.3758  -8.3758  -6.9063  -6.9063
    -6.1201  -6.1201  -5.5955  -5.5955  -4.6785  -4.6785   4.1245   4.1245
     5.0488   5.0488

          k = 0.5000 0.2195 0.0000 (236056 PWs)   bands (ev):

   -27.0211 -27.0211 -26.8841 -26.8841 -15.4062 -15.4062 -13.9718 -13.9718
   -10.5484 -10.5484  -9.9788  -9.9788  -8.4000  -8.4000  -6.8860  -6.8860
    -6.1777  -6.1777  -5.5978  -5.5978  -4.6798  -4.6798   4.1053   4.1053
     5.0394   5.0394

          k = 0.5000 0.2091 0.0000 (236052 PWs)   bands (ev):

   -27.0218 -27.0218 -26.8845 -26.8845 -15.4400 -15.4400 -13.9048 -13.9048
   -10.5549 -10.5549  -9.9639  -9.9639  -8.4263  -8.4263  -6.8638  -6.8638
    -6.2360  -6.2360  -5.6033  -5.6033  -4.6825  -4.6825   4.0842   4.0842
     5.0334   5.0334

          k = 0.5000 0.1986 0.0000 (236048 PWs)   bands (ev):

   -27.0225 -27.0225 -26.8848 -26.8848 -15.4734 -15.4734 -13.8353 -13.8353
   -10.5632 -10.5632  -9.9472  -9.9472  -8.4547  -8.4547  -6.8401  -6.8401
    -6.2945  -6.2945  -5.6116  -5.6116  -4.6868  -4.6868   4.0617   4.0617
     5.0310   5.0310

          k = 0.5000 0.1882 0.0000 (236026 PWs)   bands (ev):

   -27.0232 -27.0232 -26.8852 -26.8852 -15.5061 -15.5061 -13.7638 -13.7638
   -10.5735 -10.5735  -9.9286  -9.9286  -8.4848  -8.4848  -6.8151  -6.8151
    -6.3525  -6.3525  -5.6222  -5.6222  -4.6928  -4.6928   4.0383   4.0383
     5.0322   5.0322

          k = 0.5000 0.1777 0.0000 (236054 PWs)   bands (ev):

   -27.0240 -27.0240 -26.8856 -26.8856 -15.5377 -15.5377 -13.6907 -13.6907
   -10.5860 -10.5860  -9.9083  -9.9083  -8.5162  -8.5162  -6.7894  -6.7894
    -6.4093  -6.4093  -5.6347  -5.6347  -4.7008  -4.7008   4.0144   4.0144
     5.0370   5.0370

          k = 0.5000 0.1673 0.0000 (236058 PWs)   bands (ev):

   -27.0248 -27.0248 -26.8860 -26.8860 -15.5681 -15.5681 -13.6165 -13.6165
   -10.6008 -10.6008  -9.8863  -9.8863  -8.5488  -8.5488  -6.7641  -6.7641
    -6.4637  -6.4637  -5.6488  -5.6488  -4.7107  -4.7107   3.9905   3.9905
     5.0451   5.0451

          k = 0.5000 0.1568 0.0000 (236036 PWs)   bands (ev):

   -27.0256 -27.0256 -26.8864 -26.8864 -15.5971 -15.5971 -13.5417 -13.5417
   -10.6179 -10.6179  -9.8629  -9.8629  -8.5820  -8.5820  -6.7414  -6.7414
    -6.5132  -6.5132  -5.6641  -5.6641  -4.7225  -4.7225   3.9669   3.9669
     5.0561   5.0561

          k = 0.5000 0.1464 0.0000 (236042 PWs)   bands (ev):

   -27.0264 -27.0264 -26.8868 -26.8868 -15.6246 -15.6246 -13.4665 -13.4665
   -10.6373 -10.6373  -9.8383  -9.8383  -8.6156  -8.6156  -6.7267  -6.7267
    -6.5525  -6.5525  -5.6802  -5.6802  -4.7361  -4.7361   3.9441   3.9441
     5.0697   5.0697

          k = 0.5000 0.1359 0.0000 (236086 PWs)   bands (ev):

   -27.0271 -27.0271 -26.8872 -26.8872 -15.6505 -15.6505 -13.3917 -13.3917
   -10.6590 -10.6590  -9.8127  -9.8127  -8.6490  -8.6490  -6.7296  -6.7296
    -6.5717  -6.5717  -5.6968  -5.6968  -4.7515  -4.7515   3.9223   3.9223
     5.0854   5.0854

          k = 0.5000 0.1255 0.0000 (236094 PWs)   bands (ev):

   -27.0279 -27.0279 -26.8876 -26.8876 -15.6747 -15.6747 -13.3175 -13.3175
   -10.6828 -10.6828  -9.7866  -9.7866  -8.6820  -8.6820  -6.7544  -6.7544
    -6.5665  -6.5665  -5.7137  -5.7137  -4.7684  -4.7684   3.9018   3.9018
     5.1028   5.1028

          k = 0.5000 0.1150 0.0000 (236104 PWs)   bands (ev):

   -27.0287 -27.0287 -26.8880 -26.8880 -15.6971 -15.6971 -13.2446 -13.2446
   -10.7085 -10.7085  -9.7601  -9.7601  -8.7141  -8.7141  -6.7921  -6.7921
    -6.5460  -6.5460  -5.7306  -5.7306  -4.7864  -4.7864   3.8828   3.8828
     5.1214   5.1214

          k = 0.5000 0.1045 0.0000 (236104 PWs)   bands (ev):

   -27.0294 -27.0294 -26.8883 -26.8883 -15.7177 -15.7177 -13.1737 -13.1737
   -10.7357 -10.7357  -9.7337  -9.7337  -8.7450  -8.7450  -6.8338  -6.8338
    -6.5189  -6.5189  -5.7473  -5.7473  -4.8054  -4.8054   3.8654   3.8654
     5.1408   5.1408

          k = 0.5000 0.0941 0.0000 (236176 PWs)   bands (ev):

   -27.0300 -27.0300 -26.8887 -26.8887 -15.7365 -15.7365 -13.1052 -13.1052
   -10.7640 -10.7640  -9.7078  -9.7078  -8.7742  -8.7742  -6.8756  -6.8756
    -6.4893  -6.4893  -5.7634  -5.7634  -4.8248  -4.8248   3.8497   3.8497
     5.1604   5.1604

          k = 0.5000 0.0836 0.0000 (236186 PWs)   bands (ev):

   -27.0306 -27.0306 -26.8890 -26.8890 -15.7534 -15.7534 -13.0402 -13.0402
   -10.7928 -10.7928  -9.6828  -9.6828  -8.8014  -8.8014  -6.9156  -6.9156
    -6.4592  -6.4592  -5.7789  -5.7789  -4.8442  -4.8442   3.8357   3.8357
     5.1799   5.1799

          k = 0.5000 0.0732 0.0000 (236182 PWs)   bands (ev):

   -27.0312 -27.0312 -26.8893 -26.8893 -15.7684 -15.7684 -12.9793 -12.9793
   -10.8214 -10.8214  -9.6592  -9.6592  -8.8262  -8.8262  -6.9526  -6.9526
    -6.4297  -6.4297  -5.7935  -5.7935  -4.8631  -4.8631   3.8234   3.8234
     5.1986   5.1986

          k = 0.5000 0.0627 0.0000 (236154 PWs)   bands (ev):

   -27.0317 -27.0317 -26.8895 -26.8895 -15.7814 -15.7814 -12.9235 -12.9235
   -10.8491 -10.8491  -9.6375  -9.6375  -8.8485  -8.8485  -6.9861  -6.9861
    -6.4019  -6.4019  -5.8070  -5.8070  -4.8810  -4.8810   3.8129   3.8129
     5.2161   5.2161

          k = 0.5000 0.0523 0.0000 (236150 PWs)   bands (ev):

   -27.0321 -27.0321 -26.8897 -26.8897 -15.7924 -15.7924 -12.8738 -12.8738
   -10.8749 -10.8749  -9.6181  -9.6181  -8.8678  -8.8678  -7.0153  -7.0153
    -6.3764  -6.3764  -5.8192  -5.8192  -4.8974  -4.8974   3.8040   3.8040
     5.2319   5.2319

          k = 0.5000 0.0418 0.0000 (236158 PWs)   bands (ev):

   -27.0325 -27.0325 -26.8899 -26.8899 -15.8015 -15.8015 -12.8313 -12.8313
   -10.8978 -10.8978  -9.6014  -9.6014  -8.8841  -8.8841  -7.0399  -7.0399
    -6.3540  -6.3540  -5.8299  -5.8299  -4.9117  -4.9117   3.7969   3.7969
     5.2456   5.2456

          k = 0.5000 0.0314 0.0000 (236134 PWs)   bands (ev):

   -27.0328 -27.0328 -26.8901 -26.8901 -15.8085 -15.8085 -12.7968 -12.7968
   -10.9170 -10.9170  -9.5880  -9.5880  -8.8969  -8.8969  -7.0594  -7.0594
    -6.3356  -6.3356  -5.8386  -5.8386  -4.9234  -4.9234   3.7913   3.7913
     5.2568   5.2568

          k = 0.5000 0.0209 0.0000 (236182 PWs)   bands (ev):

   -27.0330 -27.0330 -26.8902 -26.8902 -15.8135 -15.8135 -12.7715 -12.7715
   -10.9314 -10.9314  -9.5781  -9.5781  -8.9063  -8.9063  -7.0736  -7.0736
    -6.3219  -6.3219  -5.8452  -5.8452  -4.9321  -4.9321   3.7874   3.7874
     5.2650   5.2650

          k = 0.5000 0.0105 0.0000 (236202 PWs)   bands (ev):

   -27.0331 -27.0331 -26.8902 -26.8902 -15.8166 -15.8166 -12.7559 -12.7559
   -10.9404 -10.9404  -9.5720  -9.5720  -8.9119  -8.9119  -7.0822  -7.0822
    -6.3133  -6.3133  -5.8493  -5.8493  -4.9375  -4.9375   3.7850   3.7850
     5.2700   5.2700

          k = 0.5000 0.0000 0.0000 (236166 PWs)   bands (ev):

   -27.0331 -27.0331 -26.8903 -26.8903 -15.8176 -15.8176 -12.7507 -12.7507
   -10.9434 -10.9434  -9.5700  -9.5700  -8.9138  -8.9138  -7.0851  -7.0851
    -6.3104  -6.3104  -5.8506  -5.8506  -4.9393  -4.9393   3.7842   3.7842
     5.2717   5.2717

     Writing all to output data dir ../tmp/fgz.save/

     init_run     :      1.49s CPU      1.91s WALL (       1 calls)
     electrons    :   8023.67s CPU  14454.54s WALL (       1 calls)

     Called by init_run:
     wfcinit      :      0.00s CPU      0.14s WALL (       1 calls)
     wfcinit:atom :      0.06s CPU      0.11s WALL (     161 calls)
     wfcinit:wfcr :    173.59s CPU    321.85s WALL (     161 calls)
     potinit      :      0.05s CPU      0.08s WALL (       1 calls)
     hinit0       :      0.67s CPU      0.67s WALL (       1 calls)

     Called by electrons:
     c_bands      :   8023.61s CPU  14454.48s WALL (       1 calls)
     v_of_rho     :      0.03s CPU      0.04s WALL (       1 calls)
     v_h          :      0.00s CPU      0.00s WALL (       1 calls)
     v_xc         :      0.03s CPU      0.04s WALL (       1 calls)
     newd         :      0.16s CPU      0.40s WALL (       1 calls)

     Called by c_bands:
     init_us_2    :      0.08s CPU      0.16s WALL (     161 calls)
     init_us_2:cp :      0.08s CPU      0.16s WALL (     161 calls)
     cegterg      :   7781.47s CPU  13985.04s WALL (     363 calls)

     Called by sum_band:

     Called by *egterg:
     cdiaghg      :    821.32s CPU    627.77s WALL (    5763 calls)
     cegterg:over :   2952.67s CPU   4854.77s WALL (    5602 calls)
     cegterg:upda :    196.13s CPU    375.08s WALL (    5602 calls)
     cegterg:last :    268.41s CPU    555.80s WALL (    3124 calls)
     h_psi        :   1892.70s CPU   4565.32s WALL (    6126 calls)
     s_psi        :     75.07s CPU    204.64s WALL (    6126 calls)
     g_psi        :      1.44s CPU      1.19s WALL (    5602 calls)

     Called by h_psi:
     h_psi:calbec :   1109.22s CPU   2751.55s WALL (    6126 calls)
     vloc_psi     :    416.70s CPU    524.07s WALL (    6126 calls)
     add_vuspsi   :    366.21s CPU   1285.52s WALL (    6126 calls)

     General routines
     calbec       :   1109.20s CPU   2749.24s WALL (    6126 calls)
     fft          :      0.55s CPU      0.55s WALL (      12 calls)
     fftw         :    409.06s CPU    505.97s WALL (  177518 calls)
     davcio       :      0.24s CPU      0.28s WALL (     322 calls)

     Parallel routines

     PWSCF        :      2h13m CPU      4h 2m WALL


   This run was terminated on:  19:22:35  19Jan2024            

=------------------------------------------------------------------------------=
   JOB DONE.
=------------------------------------------------------------------------------=
