
     Program PROJWFC v.7.1 starts on 19Jan2024 at 19:29:31 

     This program is part of the open-source Quantum ESPRESSO suite
     for quantum simulation of materials; please cite
         "P. Giannozzi et al., J. Phys.:Condens. Matter 21 395502 (2009);
         "P. Giannozzi et al., J. Phys.:Condens. Matter 29 465901 (2017);
         "P. Giannozzi et al., J. Chem. Phys. 152 154105 (2020);
          URL http://www.quantum-espresso.org", 
     in publications or presentations arising from this work. More details at
     http://www.quantum-espresso.org/quote

     Parallel version (MPI), running on     8 processors

     MPI processes distributed on     1 nodes
     R & G space division:  proc/nbgrp/npool/nimage =       8
     321329 MiB available memory on the printing compute node when the environment starts


     Reading xml data from directory:

     ../tmp/fgz.save/

     IMPORTANT: XC functional enforced from input :
     Exchange-correlation= PBE
                           (   1   4   3   4   0   0   0)
     Any further DFT definition will be discarded
     Please, verify this is what you really want


     Parallelization info
     --------------------
     sticks:   dense  smooth     PW     G-vecs:    dense   smooth      PW
     Min         861     861    228               236147   236147   32402
     Max         862     862    230               236156   236156   32405
     Sum        6889    6889   1831              1889203  1889203  259231

     Using Slab Decomposition


     negative rho (up, down):  2.271E-06 0.000E+00

     Gaussian broadening (read from file): ngauss,degauss=  -1    0.020000


     Calling projwave .... 
     Subspace diagonalization in iterative solution of the eigenvalue problem:
     a serial algorithm will be used


  Problem Sizes 
  natomwfc =           32
  nbnd     =           26
  nkstot   =          161
  npwx     =        29566
  nkb      =           64


     Atomic states used for projection
     (read from pseudopotential files):

     state #   1: atom   1 (C  ), wfc  1 (l=0 m= 1)
     state #   2: atom   1 (C  ), wfc  2 (l=1 m= 1)
     state #   3: atom   1 (C  ), wfc  2 (l=1 m= 2)
     state #   4: atom   1 (C  ), wfc  2 (l=1 m= 3)
     state #   5: atom   2 (C  ), wfc  1 (l=0 m= 1)
     state #   6: atom   2 (C  ), wfc  2 (l=1 m= 1)
     state #   7: atom   2 (C  ), wfc  2 (l=1 m= 2)
     state #   8: atom   2 (C  ), wfc  2 (l=1 m= 3)
     state #   9: atom   3 (C  ), wfc  1 (l=0 m= 1)
     state #  10: atom   3 (C  ), wfc  2 (l=1 m= 1)
     state #  11: atom   3 (C  ), wfc  2 (l=1 m= 2)
     state #  12: atom   3 (C  ), wfc  2 (l=1 m= 3)
     state #  13: atom   4 (C  ), wfc  1 (l=0 m= 1)
     state #  14: atom   4 (C  ), wfc  2 (l=1 m= 1)
     state #  15: atom   4 (C  ), wfc  2 (l=1 m= 2)
     state #  16: atom   4 (C  ), wfc  2 (l=1 m= 3)
     state #  17: atom   5 (F  ), wfc  1 (l=0 m= 1)
     state #  18: atom   5 (F  ), wfc  2 (l=1 m= 1)
     state #  19: atom   5 (F  ), wfc  2 (l=1 m= 2)
     state #  20: atom   5 (F  ), wfc  2 (l=1 m= 3)
     state #  21: atom   6 (F  ), wfc  1 (l=0 m= 1)
     state #  22: atom   6 (F  ), wfc  2 (l=1 m= 1)
     state #  23: atom   6 (F  ), wfc  2 (l=1 m= 2)
     state #  24: atom   6 (F  ), wfc  2 (l=1 m= 3)
     state #  25: atom   7 (F  ), wfc  1 (l=0 m= 1)
     state #  26: atom   7 (F  ), wfc  2 (l=1 m= 1)
     state #  27: atom   7 (F  ), wfc  2 (l=1 m= 2)
     state #  28: atom   7 (F  ), wfc  2 (l=1 m= 3)
     state #  29: atom   8 (F  ), wfc  1 (l=0 m= 1)
     state #  30: atom   8 (F  ), wfc  2 (l=1 m= 1)
     state #  31: atom   8 (F  ), wfc  2 (l=1 m= 2)
     state #  32: atom   8 (F  ), wfc  2 (l=1 m= 3)

 k =   0.5000000000  0.0000000000  0.0000000000
==== e(   1) =   -27.03315 eV ==== 
     psi = 0.193*[#  17]+0.193*[#  21]+0.193*[#  25]+0.193*[#  29]+0.026*[#   1]
          +0.026*[#   5]+0.026*[#   9]+0.026*[#  13]+0.010*[#   2]+0.010*[#   6]
          +0.010*[#  10]+0.010*[#  14]+0.006*[#   4]+0.006*[#   8]+0.006*[#  12]
          +0.006*[#  16]+0.006*[#  18]+0.006*[#  22]+0.006*[#  26]+0.006*[#  30]
          +0.006*[#   3]+0.006*[#   7]+0.006*[#  11]+0.006*[#  15]+0.001*[#  20]
          +0.001*[#  24]+0.001*[#  28]+0.001*[#  32]
    |psi|^2 = 0.998
==== e(   2) =   -27.03315 eV ==== 
     psi = 0.193*[#  17]+0.193*[#  21]+0.193*[#  25]+0.193*[#  29]+0.026*[#   1]
          +0.026*[#   5]+0.026*[#   9]+0.026*[#  13]+0.006*[#   4]+0.006*[#   8]
          +0.006*[#  12]+0.006*[#  16]+0.006*[#   2]+0.006*[#   3]+0.006*[#   6]
          +0.006*[#   7]+0.006*[#  10]+0.006*[#  11]+0.006*[#  14]+0.006*[#  15]
          +0.001*[#  20]+0.001*[#  24]+0.001*[#  28]+0.001*[#  32]
    |psi|^2 = 0.957
==== e(   3) =   -26.89026 eV ==== 
     psi = 0.197*[#  17]+0.197*[#  21]+0.197*[#  25]+0.197*[#  29]+0.014*[#   1]
          +0.014*[#   5]+0.014*[#   9]+0.014*[#  13]+0.010*[#   2]+0.010*[#   6]
          +0.010*[#  10]+0.010*[#  14]+0.006*[#  18]+0.006*[#  22]+0.006*[#  26]
          +0.006*[#  30]+0.002*[#   4]+0.002*[#   8]+0.002*[#  12]+0.002*[#  16]
          +0.002*[#   3]+0.002*[#   7]+0.002*[#  11]+0.002*[#  15]+0.001*[#  20]
          +0.001*[#  24]+0.001*[#  28]+0.001*[#  32]
    |psi|^2 = 0.931
==== e(   4) =   -26.89026 eV ==== 
     psi = 0.197*[#  17]+0.197*[#  21]+0.197*[#  25]+0.197*[#  29]+0.014*[#   1]
          +0.014*[#   5]+0.014*[#   9]+0.014*[#  13]+0.006*[#   2]+0.006*[#   6]
          +0.006*[#  10]+0.006*[#  14]+0.002*[#   4]+0.002*[#   8]+0.002*[#  12]
          +0.002*[#  16]+0.002*[#   3]+0.002*[#   7]+0.002*[#  11]+0.002*[#  15]
          +0.001*[#  20]+0.001*[#  24]+0.001*[#  28]+0.001*[#  32]
    |psi|^2 = 0.890
==== e(   5) =   -15.81758 eV ==== 
     psi = 0.105*[#   1]+0.105*[#   5]+0.105*[#   9]+0.105*[#  13]+0.073*[#   3]
          +0.073*[#   7]+0.073*[#  11]+0.073*[#  15]+0.029*[#  17]+0.029*[#  21]
          +0.029*[#  25]+0.029*[#  29]+0.018*[#  18]+0.018*[#  22]+0.018*[#  26]
          +0.018*[#  30]+0.017*[#   2]+0.017*[#   6]+0.017*[#  10]+0.017*[#  14]
          +0.002*[#  19]+0.002*[#  23]+0.002*[#  27]+0.002*[#  31]+0.002*[#  20]
          +0.002*[#  24]+0.002*[#  28]+0.002*[#  32]
    |psi|^2 = 0.989
==== e(   6) =   -15.81758 eV ==== 
     psi = 0.105*[#   1]+0.105*[#   5]+0.105*[#   9]+0.105*[#  13]+0.073*[#   2]
          +0.073*[#   3]+0.073*[#   6]+0.073*[#   7]+0.073*[#  10]+0.073*[#  11]
          +0.073*[#  14]+0.073*[#  15]+0.029*[#  17]+0.029*[#  21]+0.029*[#  25]
          +0.029*[#  29]+0.002*[#  18]+0.002*[#  19]+0.002*[#  22]+0.002*[#  23]
          +0.002*[#  26]+0.002*[#  27]+0.002*[#  30]+0.002*[#  31]+0.002*[#  20]
          +0.002*[#  24]+0.002*[#  28]+0.002*[#  32]
    |psi|^2 = 1.147
==== e(   7) =   -12.75069 eV ==== 
     psi = 0.070*[#   3]+0.070*[#   7]+0.070*[#  11]+0.070*[#  15]+0.065*[#   1]
          +0.065*[#   5]+0.065*[#   9]+0.065*[#  13]+0.032*[#   4]+0.032*[#   8]
          +0.032*[#  12]+0.032*[#  16]+0.022*[#  20]+0.022*[#  24]+0.022*[#  28]
          +0.022*[#  32]+0.020*[#  17]+0.020*[#  21]+0.020*[#  25]+0.020*[#  29]
          +0.018*[#  18]+0.018*[#  22]+0.018*[#  26]+0.018*[#  30]+0.017*[#   2]
          +0.017*[#   6]+0.017*[#  10]+0.017*[#  14]+0.010*[#  19]+0.010*[#  23]
          +0.010*[#  27]+0.010*[#  31]
    |psi|^2 = 1.016
==== e(   8) =   -12.75069 eV ==== 
     psi = 0.073*[#   2]+0.073*[#   6]+0.073*[#  10]+0.073*[#  14]+0.070*[#   3]
          +0.070*[#   7]+0.070*[#  11]+0.070*[#  15]+0.065*[#   1]+0.065*[#   5]
          +0.065*[#   9]+0.065*[#  13]+0.032*[#   4]+0.032*[#   8]+0.032*[#  12]
          +0.032*[#  16]+0.022*[#  20]+0.022*[#  24]+0.022*[#  28]+0.022*[#  32]
          +0.020*[#  17]+0.020*[#  21]+0.020*[#  25]+0.020*[#  29]+0.010*[#  19]
          +0.010*[#  23]+0.010*[#  27]+0.010*[#  31]+0.002*[#  18]+0.002*[#  22]
          +0.002*[#  26]+0.002*[#  30]
    |psi|^2 = 1.175
==== e(   9) =   -10.94341 eV ==== 
     psi = 0.100*[#   4]+0.100*[#   8]+0.100*[#  12]+0.100*[#  16]+0.056*[#   3]
          +0.056*[#   7]+0.056*[#  11]+0.056*[#  15]+0.037*[#  19]+0.037*[#  23]
          +0.037*[#  27]+0.037*[#  31]+0.026*[#  18]+0.026*[#  22]+0.026*[#  26]
          +0.026*[#  30]+0.015*[#   2]+0.015*[#   6]+0.015*[#  10]+0.015*[#  14]
          +0.008*[#   1]+0.008*[#   5]+0.008*[#   9]+0.008*[#  13]+0.006*[#  20]
          +0.006*[#  24]+0.006*[#  28]+0.006*[#  32]+0.001*[#  17]+0.001*[#  21]
          +0.001*[#  25]+0.001*[#  29]
    |psi|^2 = 0.993
==== e(  10) =   -10.94341 eV ==== 
     psi = 0.100*[#   4]+0.100*[#   8]+0.100*[#  12]+0.100*[#  16]+0.056*[#   2]
          +0.056*[#   3]+0.056*[#   6]+0.056*[#   7]+0.056*[#  10]+0.056*[#  11]
          +0.056*[#  14]+0.056*[#  15]+0.037*[#  18]+0.037*[#  19]+0.037*[#  22]
          +0.037*[#  23]+0.037*[#  26]+0.037*[#  27]+0.037*[#  30]+0.037*[#  31]
          +0.008*[#   1]+0.008*[#   5]+0.008*[#   9]+0.008*[#  13]+0.006*[#  20]
          +0.006*[#  24]+0.006*[#  28]+0.006*[#  32]+0.001*[#  17]+0.001*[#  21]
          +0.001*[#  25]+0.001*[#  29]
    |psi|^2 = 1.200
==== e(  11) =    -9.56997 eV ==== 
     psi = 0.038*[#   4]+0.038*[#   8]+0.038*[#  12]+0.038*[#  16]+0.026*[#  18]
          +0.026*[#  22]+0.026*[#  26]+0.026*[#  30]+0.024*[#  19]+0.024*[#  23]
          +0.024*[#  27]+0.024*[#  31]+0.022*[#   3]+0.022*[#   7]+0.022*[#  11]
          +0.022*[#  15]+0.015*[#   2]+0.015*[#   6]+0.015*[#  10]+0.015*[#  14]
          +0.013*[#  17]+0.013*[#  21]+0.013*[#  25]+0.013*[#  29]+0.002*[#  20]
          +0.002*[#  24]+0.002*[#  28]+0.002*[#  32]
    |psi|^2 = 0.559
==== e(  12) =    -9.56997 eV ==== 
     psi = 0.056*[#   2]+0.056*[#   6]+0.056*[#  10]+0.056*[#  14]+0.038*[#   4]
          +0.038*[#   8]+0.038*[#  12]+0.038*[#  16]+0.037*[#  18]+0.037*[#  22]
          +0.037*[#  26]+0.037*[#  30]+0.024*[#  19]+0.024*[#  23]+0.024*[#  27]
          +0.024*[#  31]+0.022*[#   3]+0.022*[#   7]+0.022*[#  11]+0.022*[#  15]
          +0.013*[#  17]+0.013*[#  21]+0.013*[#  25]+0.013*[#  29]+0.002*[#  20]
          +0.002*[#  24]+0.002*[#  28]+0.002*[#  32]
    |psi|^2 = 0.766
==== e(  13) =    -8.91380 eV ==== 
     psi = 0.088*[#  20]+0.088*[#  24]+0.088*[#  28]+0.088*[#  32]+0.073*[#  18]
          +0.073*[#  22]+0.073*[#  26]+0.073*[#  30]+0.069*[#   2]+0.069*[#   6]
          +0.069*[#  10]+0.069*[#  14]+0.010*[#  17]+0.010*[#  21]+0.010*[#  25]
          +0.010*[#  29]+0.006*[#   3]+0.006*[#   7]+0.006*[#  11]+0.006*[#  15]
          +0.002*[#   4]+0.002*[#   8]+0.002*[#  12]+0.002*[#  16]+0.002*[#  19]
          +0.002*[#  23]+0.002*[#  27]+0.002*[#  31]
    |psi|^2 = 0.996
==== e(  14) =    -8.91380 eV ==== 
     psi = 0.088*[#  20]+0.088*[#  24]+0.088*[#  28]+0.088*[#  32]+0.010*[#  17]
          +0.010*[#  21]+0.010*[#  25]+0.010*[#  29]+0.006*[#   2]+0.006*[#   3]
          +0.006*[#   6]+0.006*[#   7]+0.006*[#  10]+0.006*[#  11]+0.006*[#  14]
          +0.006*[#  15]+0.002*[#   4]+0.002*[#   8]+0.002*[#  12]+0.002*[#  16]
          +0.002*[#  18]+0.002*[#  19]+0.002*[#  22]+0.002*[#  23]+0.002*[#  26]
          +0.002*[#  27]+0.002*[#  30]+0.002*[#  31]
    |psi|^2 = 0.460
==== e(  15) =    -7.08508 eV ==== 
     psi = 0.179*[#  19]+0.179*[#  23]+0.179*[#  27]+0.179*[#  31]+0.073*[#  18]
          +0.073*[#  22]+0.073*[#  26]+0.073*[#  30]+0.069*[#   2]+0.069*[#   6]
          +0.069*[#  10]+0.069*[#  14]+0.031*[#  20]+0.031*[#  24]+0.031*[#  28]
          +0.031*[#  32]+0.011*[#   4]+0.011*[#   8]+0.011*[#  12]+0.011*[#  16]
          +0.008*[#   1]+0.008*[#   5]+0.008*[#   9]+0.008*[#  13]+0.002*[#  17]
          +0.002*[#  21]+0.002*[#  25]+0.002*[#  29]
    |psi|^2 = 1.488
==== e(  16) =    -7.08508 eV ==== 
     psi = 0.179*[#  19]+0.179*[#  23]+0.179*[#  27]+0.179*[#  31]+0.031*[#  20]
          +0.031*[#  24]+0.031*[#  28]+0.031*[#  32]+0.011*[#   4]+0.011*[#   8]
          +0.011*[#  12]+0.011*[#  16]+0.008*[#   1]+0.008*[#   5]+0.008*[#   9]
          +0.008*[#  13]+0.006*[#   2]+0.006*[#   6]+0.006*[#  10]+0.006*[#  14]
          +0.002*[#  17]+0.002*[#  18]+0.002*[#  21]+0.002*[#  22]+0.002*[#  25]
          +0.002*[#  26]+0.002*[#  29]+0.002*[#  30]
    |psi|^2 = 0.952
==== e(  17) =    -6.31043 eV ==== 
     psi = 0.163*[#  19]+0.163*[#  23]+0.163*[#  27]+0.163*[#  31]+0.034*[#  18]
          +0.034*[#  22]+0.034*[#  26]+0.034*[#  30]+0.030*[#  20]+0.030*[#  24]
          +0.030*[#  28]+0.030*[#  32]+0.010*[#   4]+0.010*[#   8]+0.010*[#  12]
          +0.010*[#  16]+0.005*[#   1]+0.005*[#   5]+0.005*[#   9]+0.005*[#  13]
          +0.003*[#   3]+0.003*[#   7]+0.003*[#  11]+0.003*[#  15]+0.002*[#   2]
          +0.002*[#   6]+0.002*[#  10]+0.002*[#  14]+0.001*[#  17]+0.001*[#  21]
          +0.001*[#  25]+0.001*[#  29]
    |psi|^2 = 0.995
==== e(  18) =    -6.31043 eV ==== 
     psi = 0.163*[#  18]+0.163*[#  19]+0.163*[#  22]+0.163*[#  23]+0.163*[#  26]
          +0.163*[#  27]+0.163*[#  30]+0.163*[#  31]+0.030*[#  20]+0.030*[#  24]
          +0.030*[#  28]+0.030*[#  32]+0.010*[#   4]+0.010*[#   8]+0.010*[#  12]
          +0.010*[#  16]+0.005*[#   1]+0.005*[#   5]+0.005*[#   9]+0.005*[#  13]
          +0.003*[#   2]+0.003*[#   3]+0.003*[#   6]+0.003*[#   7]+0.003*[#  10]
          +0.003*[#  11]+0.003*[#  14]+0.003*[#  15]+0.001*[#  17]+0.001*[#  21]
          +0.001*[#  25]+0.001*[#  29]
    |psi|^2 = 1.510
==== e(  19) =    -5.85064 eV ==== 
     psi = 0.180*[#  20]+0.180*[#  24]+0.180*[#  28]+0.180*[#  32]+0.034*[#  18]
          +0.034*[#  22]+0.034*[#  26]+0.034*[#  30]+0.021*[#  19]+0.021*[#  23]
          +0.021*[#  27]+0.021*[#  31]+0.013*[#   1]+0.013*[#   5]+0.013*[#   9]
          +0.013*[#  13]+0.012*[#   3]+0.012*[#   7]+0.012*[#  11]+0.012*[#  15]
          +0.003*[#   4]+0.003*[#   8]+0.003*[#  12]+0.003*[#  16]+0.002*[#   2]
          +0.002*[#   6]+0.002*[#  10]+0.002*[#  14]
    |psi|^2 = 1.064
==== e(  20) =    -5.85064 eV ==== 
     psi = 0.180*[#  20]+0.180*[#  24]+0.180*[#  28]+0.180*[#  32]+0.163*[#  18]
          +0.163*[#  22]+0.163*[#  26]+0.163*[#  30]+0.021*[#  19]+0.021*[#  23]
          +0.021*[#  27]+0.021*[#  31]+0.013*[#   1]+0.013*[#   5]+0.013*[#   9]
          +0.013*[#  13]+0.012*[#   3]+0.012*[#   7]+0.012*[#  11]+0.012*[#  15]
          +0.003*[#   2]+0.003*[#   6]+0.003*[#  10]+0.003*[#  14]+0.003*[#   4]
          +0.003*[#   8]+0.003*[#  12]+0.003*[#  16]
    |psi|^2 = 1.579
==== e(  21) =    -4.93933 eV ==== 
     psi = 0.098*[#  20]+0.098*[#  24]+0.098*[#  28]+0.098*[#  32]+0.051*[#  18]
          +0.051*[#  22]+0.051*[#  26]+0.051*[#  30]+0.042*[#  19]+0.042*[#  23]
          +0.042*[#  27]+0.042*[#  31]+0.028*[#   4]+0.028*[#   8]+0.028*[#  12]
          +0.028*[#  16]+0.015*[#   3]+0.015*[#   7]+0.015*[#  11]+0.015*[#  15]
          +0.008*[#   2]+0.008*[#   6]+0.008*[#  10]+0.008*[#  14]+0.006*[#   1]
          +0.006*[#   5]+0.006*[#   9]+0.006*[#  13]
    |psi|^2 = 0.988
==== e(  22) =    -4.93933 eV ==== 
     psi = 0.098*[#  20]+0.098*[#  24]+0.098*[#  28]+0.098*[#  32]+0.042*[#  18]
          +0.042*[#  19]+0.042*[#  22]+0.042*[#  23]+0.042*[#  26]+0.042*[#  27]
          +0.042*[#  30]+0.042*[#  31]+0.028*[#   4]+0.028*[#   8]+0.028*[#  12]
          +0.028*[#  16]+0.015*[#   2]+0.015*[#   3]+0.015*[#   6]+0.015*[#   7]
          +0.015*[#  10]+0.015*[#  11]+0.015*[#  14]+0.015*[#  15]+0.006*[#   1]
          +0.006*[#   5]+0.006*[#   9]+0.006*[#  13]
    |psi|^2 = 0.977
==== e(  23) =     3.78425 eV ==== 
     psi = 0.051*[#  18]+0.051*[#  22]+0.051*[#  26]+0.051*[#  30]+0.024*[#   3]
          +0.024*[#   7]+0.024*[#  11]+0.024*[#  15]+0.014*[#  19]+0.014*[#  23]
          +0.014*[#  27]+0.014*[#  31]+0.010*[#  17]+0.010*[#  21]+0.010*[#  25]
          +0.010*[#  29]+0.008*[#   2]+0.008*[#   6]+0.008*[#  10]+0.008*[#  14]
          +0.005*[#  20]+0.005*[#  24]+0.005*[#  28]+0.005*[#  32]+0.004*[#   1]
          +0.004*[#   5]+0.004*[#   9]+0.004*[#  13]+0.004*[#   4]+0.004*[#   8]
          +0.004*[#  12]+0.004*[#  16]
    |psi|^2 = 0.478
==== e(  24) =     3.78425 eV ==== 
     psi = 0.042*[#  18]+0.042*[#  22]+0.042*[#  26]+0.042*[#  30]+0.024*[#   3]
          +0.024*[#   7]+0.024*[#  11]+0.024*[#  15]+0.015*[#   2]+0.015*[#   6]
          +0.015*[#  10]+0.015*[#  14]+0.014*[#  19]+0.014*[#  23]+0.014*[#  27]
          +0.014*[#  31]+0.010*[#  17]+0.010*[#  21]+0.010*[#  25]+0.010*[#  29]
          +0.005*[#  20]+0.005*[#  24]+0.005*[#  28]+0.005*[#  32]+0.004*[#   1]
          +0.004*[#   5]+0.004*[#   9]+0.004*[#  13]+0.004*[#   4]+0.004*[#   8]
          +0.004*[#  12]+0.004*[#  16]
    |psi|^2 = 0.466
==== e(  25) =     5.27174 eV ==== 
     psi = 0.073*[#   1]+0.073*[#   5]+0.073*[#   9]+0.073*[#  13]+0.064*[#   2]
          +0.064*[#   6]+0.064*[#  10]+0.064*[#  14]+0.030*[#   3]+0.030*[#   7]
          +0.030*[#  11]+0.030*[#  15]+0.022*[#  20]+0.022*[#  24]+0.022*[#  28]
          +0.022*[#  32]+0.020*[#  18]+0.020*[#  22]+0.020*[#  26]+0.020*[#  30]
          +0.006*[#  17]+0.006*[#  21]+0.006*[#  25]+0.006*[#  29]+0.004*[#   4]
          +0.004*[#   8]+0.004*[#  12]+0.004*[#  16]
    |psi|^2 = 0.879
==== e(  26) =     5.27174 eV ==== 
     psi = 0.073*[#   1]+0.073*[#   5]+0.073*[#   9]+0.073*[#  13]+0.064*[#   2]
          +0.064*[#   6]+0.064*[#  10]+0.064*[#  14]+0.030*[#   3]+0.030*[#   7]
          +0.030*[#  11]+0.030*[#  15]+0.022*[#  20]+0.022*[#  24]+0.022*[#  28]
          +0.022*[#  32]+0.020*[#  18]+0.020*[#  22]+0.020*[#  26]+0.020*[#  30]
          +0.006*[#  17]+0.006*[#  21]+0.006*[#  25]+0.006*[#  29]+0.004*[#   4]
          +0.004*[#   8]+0.004*[#  12]+0.004*[#  16]
    |psi|^2 = 0.879

 k =   0.4900000000  0.0000000000  0.0000000000
==== e(   1) =   -27.05927 eV ==== 
     psi = 0.193*[#  17]+0.193*[#  21]+0.193*[#  25]+0.193*[#  29]+0.026*[#   1]
          +0.026*[#   5]+0.026*[#   9]+0.026*[#  13]+0.010*[#   2]+0.010*[#   6]
          +0.010*[#  10]+0.010*[#  14]+0.006*[#   3]+0.006*[#   7]+0.006*[#  11]
          +0.006*[#  15]+0.006*[#  18]+0.006*[#  22]+0.006*[#  26]+0.006*[#  30]
          +0.006*[#   4]+0.006*[#   8]+0.006*[#  12]+0.006*[#  16]+0.001*[#  20]
          +0.001*[#  24]+0.001*[#  28]+0.001*[#  32]
    |psi|^2 = 0.998
==== e(   2) =   -27.00782 eV ==== 
     psi = 0.194*[#  17]+0.194*[#  21]+0.194*[#  25]+0.194*[#  29]+0.025*[#   1]
          +0.025*[#   5]+0.025*[#   9]+0.025*[#  13]+0.007*[#   4]+0.007*[#   8]
          +0.007*[#  12]+0.007*[#  16]+0.006*[#   2]+0.006*[#   6]+0.006*[#  10]
          +0.006*[#  14]+0.006*[#   3]+0.006*[#   7]+0.006*[#  11]+0.006*[#  15]
          +0.001*[#  20]+0.001*[#  24]+0.001*[#  28]+0.001*[#  32]
    |psi|^2 = 0.959
==== e(   3) =   -26.91343 eV ==== 
     psi = 0.196*[#  17]+0.196*[#  21]+0.196*[#  25]+0.196*[#  29]+0.014*[#   1]
          +0.014*[#   5]+0.014*[#   9]+0.014*[#  13]+0.010*[#   2]+0.010*[#   6]
          +0.010*[#  10]+0.010*[#  14]+0.006*[#  18]+0.006*[#  22]+0.006*[#  26]
          +0.006*[#  30]+0.002*[#   3]+0.002*[#   4]+0.002*[#   7]+0.002*[#   8]
          +0.002*[#  11]+0.002*[#  12]+0.002*[#  15]+0.002*[#  16]+0.001*[#  20]
          +0.001*[#  24]+0.001*[#  28]+0.001*[#  32]
    |psi|^2 = 0.929
==== e(   4) =   -26.86775 eV ==== 
     psi = 0.197*[#  17]+0.197*[#  21]+0.197*[#  25]+0.197*[#  29]+0.013*[#   1]
          +0.013*[#   5]+0.013*[#   9]+0.013*[#  13]+0.006*[#   2]+0.006*[#   6]
          +0.006*[#  10]+0.006*[#  14]+0.002*[#   4]+0.002*[#   8]+0.002*[#  12]
          +0.002*[#  16]+0.002*[#   3]+0.002*[#   7]+0.002*[#  11]+0.002*[#  15]
          +0.001*[#  20]+0.001*[#  24]+0.001*[#  28]+0.001*[#  32]
    |psi|^2 = 0.890
==== e(   5) =   -15.92989 eV ==== 
     psi = 0.106*[#   1]+0.106*[#   5]+0.106*[#   9]+0.106*[#  13]+0.072*[#   3]
          +0.072*[#   7]+0.072*[#  11]+0.072*[#  15]+0.029*[#  17]+0.029*[#  21]
          +0.029*[#  25]+0.029*[#  29]+0.018*[#  18]+0.018*[#  22]+0.018*[#  26]
          +0.018*[#  30]+0.018*[#   2]+0.018*[#   6]+0.018*[#  10]+0.018*[#  14]
          +0.002*[#  19]+0.002*[#  23]+0.002*[#  27]+0.002*[#  31]+0.002*[#  20]
          +0.002*[#  24]+0.002*[#  28]+0.002*[#  32]
    |psi|^2 = 0.988
==== e(   6) =   -15.70389 eV ==== 
     psi = 0.105*[#   1]+0.105*[#   5]+0.105*[#   9]+0.105*[#  13]+0.074*[#   3]
          +0.074*[#   7]+0.074*[#  11]+0.074*[#  15]+0.072*[#   2]+0.072*[#   6]
          +0.072*[#  10]+0.072*[#  14]+0.028*[#  17]+0.028*[#  21]+0.028*[#  25]
          +0.028*[#  29]+0.003*[#  19]+0.003*[#  23]+0.003*[#  27]+0.003*[#  31]
          +0.002*[#  18]+0.002*[#  22]+0.002*[#  26]+0.002*[#  30]+0.002*[#  20]
          +0.002*[#  24]+0.002*[#  28]+0.002*[#  32]
    |psi|^2 = 1.143
==== e(   7) =   -12.85184 eV ==== 
     psi = 0.069*[#   3]+0.069*[#   7]+0.069*[#  11]+0.069*[#  15]+0.066*[#   1]
          +0.066*[#   5]+0.066*[#   9]+0.066*[#  13]+0.033*[#   4]+0.033*[#   8]
          +0.033*[#  12]+0.033*[#  16]+0.022*[#  20]+0.022*[#  24]+0.022*[#  28]
          +0.022*[#  32]+0.020*[#  17]+0.020*[#  21]+0.020*[#  25]+0.020*[#  29]
          +0.019*[#  18]+0.019*[#  22]+0.019*[#  26]+0.019*[#  30]+0.017*[#   2]
          +0.017*[#   6]+0.017*[#  10]+0.017*[#  14]+0.009*[#  19]+0.009*[#  23]
          +0.009*[#  27]+0.009*[#  31]
    |psi|^2 = 1.020
==== e(   8) =   -12.64833 eV ==== 
     psi = 0.074*[#   2]+0.074*[#   6]+0.074*[#  10]+0.074*[#  14]+0.071*[#   3]
          +0.071*[#   7]+0.071*[#  11]+0.071*[#  15]+0.064*[#   1]+0.064*[#   5]
          +0.064*[#   9]+0.064*[#  13]+0.031*[#   4]+0.031*[#   8]+0.031*[#  12]
          +0.031*[#  16]+0.022*[#  20]+0.022*[#  24]+0.022*[#  28]+0.022*[#  32]
          +0.019*[#  17]+0.019*[#  21]+0.019*[#  25]+0.019*[#  29]+0.010*[#  19]
          +0.010*[#  23]+0.010*[#  27]+0.010*[#  31]+0.003*[#  18]+0.003*[#  22]
          +0.003*[#  26]+0.003*[#  30]
    |psi|^2 = 1.175
==== e(   9) =   -11.00086 eV ==== 
     psi = 0.100*[#   4]+0.100*[#   8]+0.100*[#  12]+0.100*[#  16]+0.058*[#   3]
          +0.058*[#   7]+0.058*[#  11]+0.058*[#  15]+0.036*[#  19]+0.036*[#  23]
          +0.036*[#  27]+0.036*[#  31]+0.026*[#  18]+0.026*[#  22]+0.026*[#  26]
          +0.026*[#  30]+0.015*[#   2]+0.015*[#   6]+0.015*[#  10]+0.015*[#  14]
          +0.008*[#   1]+0.008*[#   5]+0.008*[#   9]+0.008*[#  13]+0.006*[#  20]
          +0.006*[#  24]+0.006*[#  28]+0.006*[#  32]+0.001*[#  17]+0.001*[#  21]
          +0.001*[#  25]+0.001*[#  29]
    |psi|^2 = 0.993
==== e(  10) =   -10.88477 eV ==== 
     psi = 0.100*[#   4]+0.100*[#   8]+0.100*[#  12]+0.100*[#  16]+0.058*[#   2]
          +0.058*[#   6]+0.058*[#  10]+0.058*[#  14]+0.054*[#   3]+0.054*[#   7]
          +0.054*[#  11]+0.054*[#  15]+0.037*[#  19]+0.037*[#  23]+0.037*[#  27]
          +0.037*[#  31]+0.036*[#  18]+0.036*[#  22]+0.036*[#  26]+0.036*[#  30]
          +0.008*[#   1]+0.008*[#   5]+0.008*[#   9]+0.008*[#  13]+0.007*[#  20]
          +0.007*[#  24]+0.007*[#  28]+0.007*[#  32]
    |psi|^2 = 1.202
==== e(  11) =    -9.58071 eV ==== 
     psi = 0.038*[#   4]+0.038*[#   8]+0.038*[#  12]+0.038*[#  16]+0.025*[#  18]
          +0.025*[#  22]+0.025*[#  26]+0.025*[#  30]+0.023*[#  19]+0.023*[#  23]
          +0.023*[#  27]+0.023*[#  31]+0.021*[#   3]+0.021*[#   7]+0.021*[#  11]
          +0.021*[#  15]+0.016*[#   2]+0.016*[#   6]+0.016*[#  10]+0.016*[#  14]
          +0.013*[#  17]+0.013*[#  21]+0.013*[#  25]+0.013*[#  29]+0.002*[#  20]
          +0.002*[#  24]+0.002*[#  28]+0.002*[#  32]
    |psi|^2 = 0.556
==== e(  12) =    -9.55956 eV ==== 
     psi = 0.054*[#   2]+0.054*[#   6]+0.054*[#  10]+0.054*[#  14]+0.038*[#   4]
          +0.038*[#   8]+0.038*[#  12]+0.038*[#  16]+0.037*[#  18]+0.037*[#  22]
          +0.037*[#  26]+0.037*[#  30]+0.025*[#  19]+0.025*[#  23]+0.025*[#  27]
          +0.025*[#  31]+0.023*[#   3]+0.023*[#   7]+0.023*[#  11]+0.023*[#  15]
          +0.013*[#  17]+0.013*[#  21]+0.013*[#  25]+0.013*[#  29]+0.002*[#  20]
          +0.002*[#  24]+0.002*[#  28]+0.002*[#  32]
    |psi|^2 = 0.767
==== e(  13) =    -8.96779 eV ==== 
     psi = 0.088*[#  20]+0.088*[#  24]+0.088*[#  28]+0.088*[#  32]+0.073*[#  18]
          +0.073*[#  22]+0.073*[#  26]+0.073*[#  30]+0.068*[#   2]+0.068*[#   6]
          +0.068*[#  10]+0.068*[#  14]+0.010*[#  17]+0.010*[#  21]+0.010*[#  25]
          +0.010*[#  29]+0.006*[#   3]+0.006*[#   7]+0.006*[#  11]+0.006*[#  15]
          +0.002*[#  19]+0.002*[#  23]+0.002*[#  27]+0.002*[#  31]+0.001*[#   4]
          +0.001*[#   8]+0.001*[#  12]+0.001*[#  16]
    |psi|^2 = 0.996
==== e(  14) =    -8.85965 eV ==== 
     psi = 0.088*[#  20]+0.088*[#  24]+0.088*[#  28]+0.088*[#  32]+0.010*[#  17]
          +0.010*[#  21]+0.010*[#  25]+0.010*[#  29]+0.006*[#   2]+0.006*[#   6]
          +0.006*[#  10]+0.006*[#  14]+0.005*[#   3]+0.005*[#   7]+0.005*[#  11]
          +0.005*[#  15]+0.002*[#   4]+0.002*[#   8]+0.002*[#  12]+0.002*[#  16]
          +0.002*[#  18]+0.002*[#  22]+0.002*[#  26]+0.002*[#  30]+0.001*[#  19]
          +0.001*[#  23]+0.001*[#  27]+0.001*[#  31]
    |psi|^2 = 0.462
==== e(  15) =    -7.10717 eV ==== 
     psi = 0.180*[#  19]+0.180*[#  23]+0.180*[#  27]+0.180*[#  31]+0.072*[#  18]
          +0.072*[#  22]+0.072*[#  26]+0.072*[#  30]+0.069*[#   2]+0.069*[#   6]
          +0.069*[#  10]+0.069*[#  14]+0.031*[#  20]+0.031*[#  24]+0.031*[#  28]
          +0.031*[#  32]+0.010*[#   4]+0.010*[#   8]+0.010*[#  12]+0.010*[#  16]
          +0.008*[#   1]+0.008*[#   5]+0.008*[#   9]+0.008*[#  13]+0.002*[#  17]
          +0.002*[#  21]+0.002*[#  25]+0.002*[#  29]
    |psi|^2 = 1.490
==== e(  16) =    -7.05942 eV ==== 
     psi = 0.177*[#  19]+0.177*[#  23]+0.177*[#  27]+0.177*[#  31]+0.032*[#  20]
          +0.032*[#  24]+0.032*[#  28]+0.032*[#  32]+0.011*[#   4]+0.011*[#   8]
          +0.011*[#  12]+0.011*[#  16]+0.008*[#   1]+0.008*[#   5]+0.008*[#   9]
          +0.008*[#  13]+0.005*[#   2]+0.005*[#   6]+0.005*[#  10]+0.005*[#  14]
          +0.002*[#  17]+0.002*[#  21]+0.002*[#  25]+0.002*[#  29]+0.001*[#  18]
          +0.001*[#  22]+0.001*[#  26]+0.001*[#  30]
    |psi|^2 = 0.949
==== e(  17) =    -6.32173 eV ==== 
     psi = 0.160*[#  19]+0.160*[#  23]+0.160*[#  27]+0.160*[#  31]+0.036*[#  18]
          +0.036*[#  22]+0.036*[#  26]+0.036*[#  30]+0.031*[#  20]+0.031*[#  24]
          +0.031*[#  28]+0.031*[#  32]+0.010*[#   4]+0.010*[#   8]+0.010*[#  12]
          +0.010*[#  16]+0.005*[#   1]+0.005*[#   5]+0.005*[#   9]+0.005*[#  13]
          +0.003*[#   2]+0.003*[#   6]+0.003*[#  10]+0.003*[#  14]+0.002*[#   3]
          +0.002*[#   7]+0.002*[#  11]+0.002*[#  15]+0.001*[#  17]+0.001*[#  21]
          +0.001*[#  25]+0.001*[#  29]
    |psi|^2 = 0.995
==== e(  18) =    -6.29786 eV ==== 
     psi = 0.165*[#  19]+0.165*[#  23]+0.165*[#  27]+0.165*[#  31]+0.160*[#  18]
          +0.160*[#  22]+0.160*[#  26]+0.160*[#  30]+0.029*[#  20]+0.029*[#  24]
          +0.029*[#  28]+0.029*[#  32]+0.010*[#   4]+0.010*[#   8]+0.010*[#  12]
          +0.010*[#  16]+0.005*[#   1]+0.005*[#   5]+0.005*[#   9]+0.005*[#  13]
          +0.003*[#   3]+0.003*[#   7]+0.003*[#  11]+0.003*[#  15]+0.002*[#   2]
          +0.002*[#   6]+0.002*[#  10]+0.002*[#  14]+0.001*[#  17]+0.001*[#  21]
          +0.001*[#  25]+0.001*[#  29]
    |psi|^2 = 1.506
==== e(  19) =    -5.89998 eV ==== 
     psi = 0.180*[#  20]+0.180*[#  24]+0.180*[#  28]+0.180*[#  32]+0.032*[#  18]
          +0.032*[#  22]+0.032*[#  26]+0.032*[#  30]+0.021*[#  19]+0.021*[#  23]
          +0.021*[#  27]+0.021*[#  31]+0.013*[#   1]+0.013*[#   5]+0.013*[#   9]
          +0.013*[#  13]+0.012*[#   3]+0.012*[#   7]+0.012*[#  11]+0.012*[#  15]
          +0.003*[#   4]+0.003*[#   8]+0.003*[#  12]+0.003*[#  16]+0.002*[#   2]
          +0.002*[#   6]+0.002*[#  10]+0.002*[#  14]
    |psi|^2 = 1.055
==== e(  20) =    -5.80106 eV ==== 
     psi = 0.180*[#  20]+0.180*[#  24]+0.180*[#  28]+0.180*[#  32]+0.165*[#  18]
          +0.165*[#  22]+0.165*[#  26]+0.165*[#  30]+0.021*[#  19]+0.021*[#  23]
          +0.021*[#  27]+0.021*[#  31]+0.013*[#   1]+0.013*[#   5]+0.013*[#   9]
          +0.013*[#  13]+0.013*[#   3]+0.013*[#   7]+0.013*[#  11]+0.013*[#  15]
          +0.003*[#   2]+0.003*[#   6]+0.003*[#  10]+0.003*[#  14]+0.003*[#   4]
          +0.003*[#   8]+0.003*[#  12]+0.003*[#  16]
    |psi|^2 = 1.593
==== e(  21) =    -4.94418 eV ==== 
     psi = 0.100*[#  20]+0.100*[#  24]+0.100*[#  28]+0.100*[#  32]+0.053*[#  18]
          +0.053*[#  22]+0.053*[#  26]+0.053*[#  30]+0.040*[#  19]+0.040*[#  23]
          +0.040*[#  27]+0.040*[#  31]+0.026*[#   4]+0.026*[#   8]+0.026*[#  12]
          +0.026*[#  16]+0.014*[#   3]+0.014*[#   7]+0.014*[#  11]+0.014*[#  15]
          +0.008*[#   2]+0.008*[#   6]+0.008*[#  10]+0.008*[#  14]+0.006*[#   1]
          +0.006*[#   5]+0.006*[#   9]+0.006*[#  13]
    |psi|^2 = 0.989
==== e(  22) =    -4.93254 eV ==== 
     psi = 0.096*[#  20]+0.096*[#  24]+0.096*[#  28]+0.096*[#  32]+0.044*[#  19]
          +0.044*[#  23]+0.044*[#  27]+0.044*[#  31]+0.040*[#  18]+0.040*[#  22]
          +0.040*[#  26]+0.040*[#  30]+0.029*[#   4]+0.029*[#   8]+0.029*[#  12]
          +0.029*[#  16]+0.015*[#   3]+0.015*[#   7]+0.015*[#  11]+0.015*[#  15]
          +0.014*[#   2]+0.014*[#   6]+0.014*[#  10]+0.014*[#  14]+0.006*[#   1]
          +0.006*[#   5]+0.006*[#   9]+0.006*[#  13]
    |psi|^2 = 0.975
==== e(  23) =     3.68819 eV ==== 
     psi = 0.049*[#  18]+0.049*[#  22]+0.049*[#  26]+0.049*[#  30]+0.023*[#   3]
          +0.023*[#   7]+0.023*[#  11]+0.023*[#  15]+0.014*[#  19]+0.014*[#  23]
          +0.014*[#  27]+0.014*[#  31]+0.011*[#  17]+0.011*[#  21]+0.011*[#  25]
          +0.011*[#  29]+0.008*[#   2]+0.008*[#   6]+0.008*[#  10]+0.008*[#  14]
          +0.005*[#  20]+0.005*[#  24]+0.005*[#  28]+0.005*[#  32]+0.003*[#   1]
          +0.003*[#   4]+0.003*[#   5]+0.003*[#   8]+0.003*[#   9]+0.003*[#  12]
          +0.003*[#  13]+0.003*[#  16]
    |psi|^2 = 0.469
==== e(  24) =     3.88206 eV ==== 
     psi = 0.044*[#  18]+0.044*[#  22]+0.044*[#  26]+0.044*[#  30]+0.024*[#   3]
          +0.024*[#   7]+0.024*[#  11]+0.024*[#  15]+0.015*[#   2]+0.015*[#   6]
          +0.015*[#  10]+0.015*[#  14]+0.013*[#  19]+0.013*[#  23]+0.013*[#  27]
          +0.013*[#  31]+0.010*[#  17]+0.010*[#  21]+0.010*[#  25]+0.010*[#  29]
          +0.005*[#  20]+0.005*[#  24]+0.005*[#  28]+0.005*[#  32]+0.004*[#   1]
          +0.004*[#   5]+0.004*[#   9]+0.004*[#  13]+0.004*[#   4]+0.004*[#   8]
          +0.004*[#  12]+0.004*[#  16]
    |psi|^2 = 0.477
==== e(  25) =     5.17124 eV ==== 
     psi = 0.074*[#   1]+0.074*[#   5]+0.074*[#   9]+0.074*[#  13]+0.063*[#   2]
          +0.063*[#   6]+0.063*[#  10]+0.063*[#  14]+0.032*[#   3]+0.032*[#   7]
          +0.032*[#  11]+0.032*[#  15]+0.022*[#  20]+0.022*[#  24]+0.022*[#  28]
          +0.022*[#  32]+0.020*[#  18]+0.020*[#  22]+0.020*[#  26]+0.020*[#  30]
          +0.006*[#  17]+0.006*[#  21]+0.006*[#  25]+0.006*[#  29]+0.004*[#   4]
          +0.004*[#   8]+0.004*[#  12]+0.004*[#  16]
    |psi|^2 = 0.883
==== e(  26) =     5.37523 eV ==== 
     psi = 0.072*[#   1]+0.072*[#   5]+0.072*[#   9]+0.072*[#  13]+0.066*[#   2]
          +0.066*[#   6]+0.066*[#  10]+0.066*[#  14]+0.028*[#   3]+0.028*[#   7]
          +0.028*[#  11]+0.028*[#  15]+0.022*[#  20]+0.022*[#  24]+0.022*[#  28]
          +0.022*[#  32]+0.020*[#  18]+0.020*[#  22]+0.020*[#  26]+0.020*[#  30]
          +0.006*[#  17]+0.006*[#  21]+0.006*[#  25]+0.006*[#  29]+0.004*[#   4]
          +0.004*[#   8]+0.004*[#  12]+0.004*[#  16]
    |psi|^2 = 0.874

 k =   0.4800000000  0.0000000000  0.0000000000
==== e(   1) =   -27.08614 eV ==== 
     psi = 0.192*[#  17]+0.192*[#  21]+0.192*[#  25]+0.192*[#  29]+0.027*[#   1]
          +0.027*[#   5]+0.027*[#   9]+0.027*[#  13]+0.010*[#   2]+0.010*[#   6]
          +0.010*[#  10]+0.010*[#  14]+0.007*[#   3]+0.007*[#   7]+0.007*[#  11]
          +0.007*[#  15]+0.006*[#  18]+0.006*[#  22]+0.006*[#  26]+0.006*[#  30]
          +0.006*[#   4]+0.006*[#   8]+0.006*[#  12]+0.006*[#  16]+0.001*[#  20]
          +0.001*[#  24]+0.001*[#  28]+0.001*[#  32]
    |psi|^2 = 0.998
==== e(   2) =   -26.98332 eV ==== 
     psi = 0.195*[#  17]+0.195*[#  21]+0.195*[#  25]+0.195*[#  29]+0.025*[#   1]
          +0.025*[#   5]+0.025*[#   9]+0.025*[#  13]+0.007*[#   4]+0.007*[#   8]
          +0.007*[#  12]+0.007*[#  16]+0.007*[#   2]+0.007*[#   6]+0.007*[#  10]
          +0.007*[#  14]+0.005*[#   3]+0.005*[#   7]+0.005*[#  11]+0.005*[#  15]
          +0.001*[#  20]+0.001*[#  24]+0.001*[#  28]+0.001*[#  32]
    |psi|^2 = 0.960
==== e(   3) =   -26.93723 eV ==== 
     psi = 0.196*[#  17]+0.196*[#  21]+0.196*[#  25]+0.196*[#  29]+0.014*[#   1]
          +0.014*[#   5]+0.014*[#   9]+0.014*[#  13]+0.010*[#   2]+0.010*[#   6]
          +0.010*[#  10]+0.010*[#  14]+0.006*[#  18]+0.006*[#  22]+0.006*[#  26]
          +0.006*[#  30]+0.002*[#   3]+0.002*[#   7]+0.002*[#  11]+0.002*[#  15]
          +0.002*[#   4]+0.002*[#   8]+0.002*[#  12]+0.002*[#  16]+0.001*[#  20]
          +0.001*[#  24]+0.001*[#  28]+0.001*[#  32]
    |psi|^2 = 0.927
==== e(   4) =   -26.84595 eV ==== 
     psi = 0.198*[#  17]+0.198*[#  21]+0.198*[#  25]+0.198*[#  29]+0.013*[#   1]
          +0.013*[#   5]+0.013*[#   9]+0.013*[#  13]+0.005*[#   2]+0.005*[#   6]
          +0.005*[#  10]+0.005*[#  14]+0.002*[#   4]+0.002*[#   8]+0.002*[#  12]
          +0.002*[#  16]+0.002*[#   3]+0.002*[#   7]+0.002*[#  11]+0.002*[#  15]
          +0.001*[#  20]+0.001*[#  24]+0.001*[#  28]+0.001*[#  32]
    |psi|^2 = 0.890
==== e(   5) =   -16.04068 eV ==== 
     psi = 0.107*[#   1]+0.107*[#   5]+0.107*[#   9]+0.107*[#  13]+0.071*[#   3]
          +0.071*[#   7]+0.071*[#  11]+0.071*[#  15]+0.030*[#  17]+0.030*[#  21]
          +0.030*[#  25]+0.030*[#  29]+0.018*[#   2]+0.018*[#   6]+0.018*[#  10]
          +0.018*[#  14]+0.018*[#  18]+0.018*[#  22]+0.018*[#  26]+0.018*[#  30]
          +0.002*[#  19]+0.002*[#  23]+0.002*[#  27]+0.002*[#  31]+0.002*[#  20]
          +0.002*[#  24]+0.002*[#  28]+0.002*[#  32]
    |psi|^2 = 0.988
==== e(   6) =   -15.58894 eV ==== 
     psi = 0.104*[#   1]+0.104*[#   5]+0.104*[#   9]+0.104*[#  13]+0.074*[#   3]
          +0.074*[#   7]+0.074*[#  11]+0.074*[#  15]+0.071*[#   2]+0.071*[#   6]
          +0.071*[#  10]+0.071*[#  14]+0.028*[#  17]+0.028*[#  21]+0.028*[#  25]
          +0.028*[#  29]+0.003*[#  19]+0.003*[#  23]+0.003*[#  27]+0.003*[#  31]
          +0.002*[#  18]+0.002*[#  22]+0.002*[#  26]+0.002*[#  30]+0.002*[#  20]
          +0.002*[#  24]+0.002*[#  28]+0.002*[#  32]
    |psi|^2 = 1.138
==== e(   7) =   -12.95171 eV ==== 
     psi = 0.068*[#   1]+0.068*[#   5]+0.068*[#   9]+0.068*[#  13]+0.067*[#   3]
          +0.067*[#   7]+0.067*[#  11]+0.067*[#  15]+0.035*[#   4]+0.035*[#   8]
          +0.035*[#  12]+0.035*[#  16]+0.022*[#  20]+0.022*[#  24]+0.022*[#  28]
          +0.022*[#  32]+0.020*[#  17]+0.020*[#  21]+0.020*[#  25]+0.020*[#  29]
          +0.019*[#  18]+0.019*[#  22]+0.019*[#  26]+0.019*[#  30]+0.017*[#   2]
          +0.017*[#   6]+0.017*[#  10]+0.017*[#  14]+0.008*[#  19]+0.008*[#  23]
          +0.008*[#  27]+0.008*[#  31]
    |psi|^2 = 1.024
==== e(   8) =   -12.54483 eV ==== 
     psi = 0.074*[#   2]+0.074*[#   6]+0.074*[#  10]+0.074*[#  14]+0.072*[#   3]
          +0.072*[#   7]+0.072*[#  11]+0.072*[#  15]+0.062*[#   1]+0.062*[#   5]
          +0.062*[#   9]+0.062*[#  13]+0.029*[#   4]+0.029*[#   8]+0.029*[#  12]
          +0.029*[#  16]+0.022*[#  20]+0.022*[#  24]+0.022*[#  28]+0.022*[#  32]
          +0.019*[#  17]+0.019*[#  21]+0.019*[#  25]+0.019*[#  29]+0.011*[#  19]
          +0.011*[#  23]+0.011*[#  27]+0.011*[#  31]+0.003*[#  18]+0.003*[#  22]
          +0.003*[#  26]+0.003*[#  30]
    |psi|^2 = 1.173
==== e(   9) =   -11.05687 eV ==== 
     psi = 0.100*[#   4]+0.100*[#   8]+0.100*[#  12]+0.100*[#  16]+0.059*[#   3]
          +0.059*[#   7]+0.059*[#  11]+0.059*[#  15]+0.036*[#  19]+0.036*[#  23]
          +0.036*[#  27]+0.036*[#  31]+0.025*[#  18]+0.025*[#  22]+0.025*[#  26]
          +0.025*[#  30]+0.014*[#   2]+0.014*[#   6]+0.014*[#  10]+0.014*[#  14]
          +0.008*[#   1]+0.008*[#   5]+0.008*[#   9]+0.008*[#  13]+0.005*[#  20]
          +0.005*[#  24]+0.005*[#  28]+0.005*[#  32]+0.001*[#  17]+0.001*[#  21]
          +0.001*[#  25]+0.001*[#  29]
    |psi|^2 = 0.992
==== e(  10) =   -10.82523 eV ==== 
     psi = 0.100*[#   4]+0.100*[#   8]+0.100*[#  12]+0.100*[#  16]+0.059*[#   2]
          +0.059*[#   6]+0.059*[#  10]+0.059*[#  14]+0.053*[#   3]+0.053*[#   7]
          +0.053*[#  11]+0.053*[#  15]+0.037*[#  19]+0.037*[#  23]+0.037*[#  27]
          +0.037*[#  31]+0.036*[#  18]+0.036*[#  22]+0.036*[#  26]+0.036*[#  30]
          +0.008*[#  20]+0.008*[#  24]+0.008*[#  28]+0.008*[#  32]+0.007*[#   1]
          +0.007*[#   5]+0.007*[#   9]+0.007*[#  13]
    |psi|^2 = 1.204
==== e(  11) =    -9.59188 eV ==== 
     psi = 0.039*[#   4]+0.039*[#   8]+0.039*[#  12]+0.039*[#  16]+0.025*[#  18]
          +0.025*[#  22]+0.025*[#  26]+0.025*[#  30]+0.021*[#  19]+0.021*[#  23]
          +0.021*[#  27]+0.021*[#  31]+0.021*[#   3]+0.021*[#   7]+0.021*[#  11]
          +0.021*[#  15]+0.017*[#   2]+0.017*[#   6]+0.017*[#  10]+0.017*[#  14]
          +0.013*[#  17]+0.013*[#  21]+0.013*[#  25]+0.013*[#  29]+0.002*[#  20]
          +0.002*[#  24]+0.002*[#  28]+0.002*[#  32]
    |psi|^2 = 0.554
==== e(  12) =    -9.54941 eV ==== 
     psi = 0.053*[#   2]+0.053*[#   6]+0.053*[#  10]+0.053*[#  14]+0.038*[#   4]
          +0.038*[#   8]+0.038*[#  12]+0.038*[#  16]+0.037*[#  18]+0.037*[#  22]
          +0.037*[#  26]+0.037*[#  30]+0.026*[#  19]+0.026*[#  23]+0.026*[#  27]
          +0.026*[#  31]+0.023*[#   3]+0.023*[#   7]+0.023*[#  11]+0.023*[#  15]
          +0.013*[#  17]+0.013*[#  21]+0.013*[#  25]+0.013*[#  29]+0.002*[#  20]
          +0.002*[#  24]+0.002*[#  28]+0.002*[#  32]
    |psi|^2 = 0.767
==== e(  13) =    -9.02138 eV ==== 
     psi = 0.087*[#  20]+0.087*[#  24]+0.087*[#  28]+0.087*[#  32]+0.074*[#  18]
          +0.074*[#  22]+0.074*[#  26]+0.074*[#  30]+0.067*[#   2]+0.067*[#   6]
          +0.067*[#  10]+0.067*[#  14]+0.010*[#  17]+0.010*[#  21]+0.010*[#  25]
          +0.010*[#  29]+0.006*[#   3]+0.006*[#   7]+0.006*[#  11]+0.006*[#  15]
          +0.002*[#  19]+0.002*[#  23]+0.002*[#  27]+0.002*[#  31]+0.001*[#   4]
          +0.001*[#   8]+0.001*[#  12]+0.001*[#  16]
    |psi|^2 = 0.996
==== e(  14) =    -8.80552 eV ==== 
     psi = 0.088*[#  20]+0.088*[#  24]+0.088*[#  28]+0.088*[#  32]+0.010*[#  17]
          +0.010*[#  21]+0.010*[#  25]+0.010*[#  29]+0.006*[#   2]+0.006*[#   6]
          +0.006*[#  10]+0.006*[#  14]+0.005*[#   3]+0.005*[#   7]+0.005*[#  11]
          +0.005*[#  15]+0.002*[#  18]+0.002*[#  22]+0.002*[#  26]+0.002*[#  30]
          +0.002*[#   4]+0.002*[#   8]+0.002*[#  12]+0.002*[#  16]+0.001*[#  19]
          +0.001*[#  23]+0.001*[#  27]+0.001*[#  31]
    |psi|^2 = 0.464
==== e(  15) =    -7.12562 eV ==== 
     psi = 0.181*[#  19]+0.181*[#  23]+0.181*[#  27]+0.181*[#  31]+0.072*[#  18]
          +0.072*[#  22]+0.072*[#  26]+0.072*[#  30]+0.070*[#   2]+0.070*[#   6]
          +0.070*[#  10]+0.070*[#  14]+0.031*[#  20]+0.031*[#  24]+0.031*[#  28]
          +0.031*[#  32]+0.010*[#   4]+0.010*[#   8]+0.010*[#  12]+0.010*[#  16]
          +0.007*[#   1]+0.007*[#   5]+0.007*[#   9]+0.007*[#  13]+0.002*[#  17]
          +0.002*[#  21]+0.002*[#  25]+0.002*[#  29]
    |psi|^2 = 1.493
==== e(  16) =    -7.03026 eV ==== 
     psi = 0.176*[#  19]+0.176*[#  23]+0.176*[#  27]+0.176*[#  31]+0.033*[#  20]
          +0.033*[#  24]+0.033*[#  28]+0.033*[#  32]+0.012*[#   4]+0.012*[#   8]
          +0.012*[#  12]+0.012*[#  16]+0.009*[#   1]+0.009*[#   5]+0.009*[#   9]
          +0.009*[#  13]+0.005*[#   2]+0.005*[#   6]+0.005*[#  10]+0.005*[#  14]
          +0.001*[#  17]+0.001*[#  21]+0.001*[#  25]+0.001*[#  29]+0.001*[#  18]
          +0.001*[#  22]+0.001*[#  26]+0.001*[#  30]
    |psi|^2 = 0.946
==== e(  17) =    -6.33186 eV ==== 
     psi = 0.157*[#  19]+0.157*[#  23]+0.157*[#  27]+0.157*[#  31]+0.038*[#  18]
          +0.038*[#  22]+0.038*[#  26]+0.038*[#  30]+0.032*[#  20]+0.032*[#  24]
          +0.032*[#  28]+0.032*[#  32]+0.009*[#   4]+0.009*[#   8]+0.009*[#  12]
          +0.009*[#  16]+0.006*[#   1]+0.006*[#   5]+0.006*[#   9]+0.006*[#  13]
          +0.003*[#   2]+0.003*[#   6]+0.003*[#  10]+0.003*[#  14]+0.002*[#   3]
          +0.002*[#   7]+0.002*[#  11]+0.002*[#  15]+0.001*[#  17]+0.001*[#  21]
          +0.001*[#  25]+0.001*[#  29]
    |psi|^2 = 0.995
==== e(  18) =    -6.28390 eV ==== 
     psi = 0.168*[#  19]+0.168*[#  23]+0.168*[#  27]+0.168*[#  31]+0.157*[#  18]
          +0.157*[#  22]+0.157*[#  26]+0.157*[#  30]+0.028*[#  20]+0.028*[#  24]
          +0.028*[#  28]+0.028*[#  32]+0.010*[#   4]+0.010*[#   8]+0.010*[#  12]
          +0.010*[#  16]+0.005*[#   1]+0.005*[#   5]+0.005*[#   9]+0.005*[#  13]
          +0.004*[#   3]+0.004*[#   7]+0.004*[#  11]+0.004*[#  15]+0.002*[#   2]
          +0.002*[#   6]+0.002*[#  10]+0.002*[#  14]+0.001*[#  17]+0.001*[#  21]
          +0.001*[#  25]+0.001*[#  29]
    |psi|^2 = 1.501
==== e(  19) =    -5.94904 eV ==== 
     psi = 0.180*[#  20]+0.180*[#  24]+0.180*[#  28]+0.180*[#  32]+0.030*[#  18]
          +0.030*[#  22]+0.030*[#  26]+0.030*[#  30]+0.021*[#  19]+0.021*[#  23]
          +0.021*[#  27]+0.021*[#  31]+0.014*[#   1]+0.014*[#   5]+0.014*[#   9]
          +0.014*[#  13]+0.011*[#   3]+0.011*[#   7]+0.011*[#  11]+0.011*[#  15]
          +0.003*[#   4]+0.003*[#   8]+0.003*[#  12]+0.003*[#  16]+0.002*[#   2]
          +0.002*[#   6]+0.002*[#  10]+0.002*[#  14]
    |psi|^2 = 1.045
==== e(  20) =    -5.75127 eV ==== 
     psi = 0.179*[#  20]+0.179*[#  24]+0.179*[#  28]+0.179*[#  32]+0.168*[#  18]
          +0.168*[#  22]+0.168*[#  26]+0.168*[#  30]+0.021*[#  19]+0.021*[#  23]
          +0.021*[#  27]+0.021*[#  31]+0.014*[#   3]+0.014*[#   7]+0.014*[#  11]
          +0.014*[#  15]+0.013*[#   1]+0.013*[#   5]+0.013*[#   9]+0.013*[#  13]
          +0.004*[#   2]+0.004*[#   6]+0.004*[#  10]+0.004*[#  14]+0.003*[#   4]
          +0.003*[#   8]+0.003*[#  12]+0.003*[#  16]
    |psi|^2 = 1.607
==== e(  21) =    -4.94715 eV ==== 
     psi = 0.102*[#  20]+0.102*[#  24]+0.102*[#  28]+0.102*[#  32]+0.055*[#  18]
          +0.055*[#  22]+0.055*[#  26]+0.055*[#  30]+0.038*[#  19]+0.038*[#  23]
          +0.038*[#  27]+0.038*[#  31]+0.025*[#   4]+0.025*[#   8]+0.025*[#  12]
          +0.025*[#  16]+0.014*[#   3]+0.014*[#   7]+0.014*[#  11]+0.014*[#  15]
          +0.008*[#   2]+0.008*[#   6]+0.008*[#  10]+0.008*[#  14]+0.006*[#   1]
          +0.006*[#   5]+0.006*[#   9]+0.006*[#  13]
    |psi|^2 = 0.989
==== e(  22) =    -4.92375 eV ==== 
     psi = 0.094*[#  20]+0.094*[#  24]+0.094*[#  28]+0.094*[#  32]+0.046*[#  19]
          +0.046*[#  23]+0.046*[#  27]+0.046*[#  31]+0.038*[#  18]+0.038*[#  22]
          +0.038*[#  26]+0.038*[#  30]+0.031*[#   4]+0.031*[#   8]+0.031*[#  12]
          +0.031*[#  16]+0.015*[#   3]+0.015*[#   7]+0.015*[#  11]+0.015*[#  15]
          +0.014*[#   2]+0.014*[#   6]+0.014*[#  10]+0.014*[#  14]+0.005*[#   1]
          +0.005*[#   5]+0.005*[#   9]+0.005*[#  13]
    |psi|^2 = 0.973
==== e(  23) =     3.59388 eV ==== 
     psi = 0.047*[#  18]+0.047*[#  22]+0.047*[#  26]+0.047*[#  30]+0.023*[#   3]
          +0.023*[#   7]+0.023*[#  11]+0.023*[#  15]+0.014*[#  19]+0.014*[#  23]
          +0.014*[#  27]+0.014*[#  31]+0.011*[#  17]+0.011*[#  21]+0.011*[#  25]
          +0.011*[#  29]+0.009*[#   2]+0.009*[#   6]+0.009*[#  10]+0.009*[#  14]
          +0.005*[#  20]+0.005*[#  24]+0.005*[#  28]+0.005*[#  32]+0.003*[#   4]
          +0.003*[#   8]+0.003*[#  12]+0.003*[#  16]+0.003*[#   1]+0.003*[#   5]
          +0.003*[#   9]+0.003*[#  13]
    |psi|^2 = 0.460
==== e(  24) =     3.98161 eV ==== 
     psi = 0.046*[#  18]+0.046*[#  22]+0.046*[#  26]+0.046*[#  30]+0.024*[#   3]
          +0.024*[#   7]+0.024*[#  11]+0.024*[#  15]+0.015*[#   2]+0.015*[#   6]
          +0.015*[#  10]+0.015*[#  14]+0.013*[#  19]+0.013*[#  23]+0.013*[#  27]
          +0.013*[#  31]+0.010*[#  17]+0.010*[#  21]+0.010*[#  25]+0.010*[#  29]
          +0.005*[#   1]+0.005*[#   5]+0.005*[#   9]+0.005*[#  13]+0.005*[#  20]
          +0.005*[#  24]+0.005*[#  28]+0.005*[#  32]+0.004*[#   4]+0.004*[#   8]
          +0.004*[#  12]+0.004*[#  16]
    |psi|^2 = 0.487
==== e(  25) =     5.07381 eV ==== 
     psi = 0.074*[#   1]+0.074*[#   5]+0.074*[#   9]+0.074*[#  13]+0.062*[#   2]
          +0.062*[#   6]+0.062*[#  10]+0.062*[#  14]+0.034*[#   3]+0.034*[#   7]
          +0.034*[#  11]+0.034*[#  15]+0.022*[#  20]+0.022*[#  24]+0.022*[#  28]
          +0.022*[#  32]+0.020*[#  18]+0.020*[#  22]+0.020*[#  26]+0.020*[#  30]
          +0.006*[#  17]+0.006*[#  21]+0.006*[#  25]+0.006*[#  29]+0.005*[#   4]
          +0.005*[#   8]+0.005*[#  12]+0.005*[#  16]
    |psi|^2 = 0.887
==== e(  26) =     5.48164 eV ==== 
     psi = 0.072*[#   1]+0.072*[#   5]+0.072*[#   9]+0.072*[#  13]+0.067*[#   2]
          +0.067*[#   6]+0.067*[#  10]+0.067*[#  14]+0.027*[#   3]+0.027*[#   7]
          +0.027*[#  11]+0.027*[#  15]+0.022*[#  20]+0.022*[#  24]+0.022*[#  28]
          +0.022*[#  32]+0.020*[#  18]+0.020*[#  22]+0.020*[#  26]+0.020*[#  30]
          +0.006*[#  17]+0.006*[#  21]+0.006*[#  25]+0.006*[#  29]+0.004*[#   4]
          +0.004*[#   8]+0.004*[#  12]+0.004*[#  16]
    |psi|^2 = 0.869

 k =   0.4700000000  0.0000000000  0.0000000000
==== e(   1) =   -27.11373 eV ==== 
     psi = 0.191*[#  17]+0.191*[#  21]+0.191*[#  25]+0.191*[#  29]+0.027*[#   1]
          +0.027*[#   5]+0.027*[#   9]+0.027*[#  13]+0.011*[#   2]+0.011*[#   6]
          +0.011*[#  10]+0.011*[#  14]+0.007*[#   3]+0.007*[#   7]+0.007*[#  11]
          +0.007*[#  15]+0.006*[#  18]+0.006*[#  22]+0.006*[#  26]+0.006*[#  30]
          +0.006*[#   4]+0.006*[#   8]+0.006*[#  12]+0.006*[#  16]+0.001*[#  20]
          +0.001*[#  24]+0.001*[#  28]+0.001*[#  32]
    |psi|^2 = 0.998
==== e(   2) =   -26.96164 eV ==== 
     psi = 0.195*[#  17]+0.195*[#  21]+0.195*[#  25]+0.195*[#  29]+0.014*[#   1]
          +0.014*[#   5]+0.014*[#   9]+0.014*[#  13]+0.007*[#   2]+0.007*[#   6]
          +0.007*[#  10]+0.007*[#  14]+0.002*[#   3]+0.002*[#   7]+0.002*[#  11]
          +0.002*[#  15]+0.002*[#   4]+0.002*[#   8]+0.002*[#  12]+0.002*[#  16]
          +0.001*[#  20]+0.001*[#  24]+0.001*[#  28]+0.001*[#  32]
    |psi|^2 = 0.889
==== e(   3) =   -26.95967 eV ==== 
     psi = 0.195*[#  17]+0.195*[#  21]+0.195*[#  25]+0.195*[#  29]+0.029*[#   2]
          +0.029*[#   6]+0.029*[#  10]+0.029*[#  14]+0.024*[#   1]+0.024*[#   5]
          +0.024*[#   9]+0.024*[#  13]+0.007*[#   4]+0.007*[#   8]+0.007*[#  12]
          +0.007*[#  16]+0.005*[#  18]+0.005*[#  22]+0.005*[#  26]+0.005*[#  30]
          +0.005*[#   3]+0.005*[#   7]+0.005*[#  11]+0.005*[#  15]+0.001*[#  20]
          +0.001*[#  24]+0.001*[#  28]+0.001*[#  32]
    |psi|^2 = 1.070
==== e(   4) =   -26.82487 eV ==== 
     psi = 0.199*[#  17]+0.199*[#  21]+0.199*[#  25]+0.199*[#  29]+0.013*[#   1]
          +0.013*[#   5]+0.013*[#   9]+0.013*[#  13]+0.003*[#   4]+0.003*[#   8]
          +0.003*[#  12]+0.003*[#  16]+0.002*[#   2]+0.002*[#   6]+0.002*[#  10]
          +0.002*[#  14]+0.002*[#   3]+0.002*[#   7]+0.002*[#  11]+0.002*[#  15]
          +0.001*[#  20]+0.001*[#  24]+0.001*[#  28]+0.001*[#  32]
    |psi|^2 = 0.879
==== e(   5) =   -16.14985 eV ==== 
     psi = 0.107*[#   1]+0.107*[#   5]+0.107*[#   9]+0.107*[#  13]+0.070*[#   3]
          +0.070*[#   7]+0.070*[#  11]+0.070*[#  15]+0.031*[#  17]+0.031*[#  21]
          +0.031*[#  25]+0.031*[#  29]+0.018*[#   2]+0.018*[#   6]+0.018*[#  10]
          +0.018*[#  14]+0.017*[#  18]+0.017*[#  22]+0.017*[#  26]+0.017*[#  30]
          +0.002*[#  19]+0.002*[#  23]+0.002*[#  27]+0.002*[#  31]+0.002*[#  20]
          +0.002*[#  24]+0.002*[#  28]+0.002*[#  32]
    |psi|^2 = 0.988
==== e(   6) =   -15.47289 eV ==== 
     psi = 0.104*[#   1]+0.104*[#   5]+0.104*[#   9]+0.104*[#  13]+0.074*[#   3]
          +0.074*[#   7]+0.074*[#  11]+0.074*[#  15]+0.070*[#   2]+0.070*[#   6]
          +0.070*[#  10]+0.070*[#  14]+0.027*[#  17]+0.027*[#  21]+0.027*[#  25]
          +0.027*[#  29]+0.003*[#  19]+0.003*[#  23]+0.003*[#  27]+0.003*[#  31]
          +0.002*[#  18]+0.002*[#  22]+0.002*[#  26]+0.002*[#  30]+0.002*[#  20]
          +0.002*[#  24]+0.002*[#  28]+0.002*[#  32]
    |psi|^2 = 1.132
==== e(   7) =   -13.05024 eV ==== 
     psi = 0.069*[#   1]+0.069*[#   5]+0.069*[#   9]+0.069*[#  13]+0.066*[#   3]
          +0.066*[#   7]+0.066*[#  11]+0.066*[#  15]+0.036*[#   4]+0.036*[#   8]
          +0.036*[#  12]+0.036*[#  16]+0.022*[#  20]+0.022*[#  24]+0.022*[#  28]
          +0.022*[#  32]+0.021*[#  17]+0.021*[#  21]+0.021*[#  25]+0.021*[#  29]
          +0.020*[#  18]+0.020*[#  22]+0.020*[#  26]+0.020*[#  30]+0.016*[#   2]
          +0.016*[#   6]+0.016*[#  10]+0.016*[#  14]+0.007*[#  19]+0.007*[#  23]
          +0.007*[#  27]+0.007*[#  31]
    |psi|^2 = 1.028
==== e(   8) =   -12.44025 eV ==== 
     psi = 0.074*[#   2]+0.074*[#   6]+0.074*[#  10]+0.074*[#  14]+0.074*[#   3]
          +0.074*[#   7]+0.074*[#  11]+0.074*[#  15]+0.061*[#   1]+0.061*[#   5]
          +0.061*[#   9]+0.061*[#  13]+0.028*[#   4]+0.028*[#   8]+0.028*[#  12]
          +0.028*[#  16]+0.022*[#  20]+0.022*[#  24]+0.022*[#  28]+0.022*[#  32]
          +0.019*[#  17]+0.019*[#  21]+0.019*[#  25]+0.019*[#  29]+0.012*[#  19]
          +0.012*[#  23]+0.012*[#  27]+0.012*[#  31]+0.003*[#  18]+0.003*[#  22]
          +0.003*[#  26]+0.003*[#  30]
    |psi|^2 = 1.171
==== e(   9) =   -11.11118 eV ==== 
     psi = 0.100*[#   4]+0.100*[#   8]+0.100*[#  12]+0.100*[#  16]+0.061*[#   3]
          +0.061*[#   7]+0.061*[#  11]+0.061*[#  15]+0.035*[#  19]+0.035*[#  23]
          +0.035*[#  27]+0.035*[#  31]+0.025*[#  18]+0.025*[#  22]+0.025*[#  26]
          +0.025*[#  30]+0.013*[#   2]+0.013*[#   6]+0.013*[#  10]+0.013*[#  14]
          +0.007*[#   1]+0.007*[#   5]+0.007*[#   9]+0.007*[#  13]+0.005*[#  20]
          +0.005*[#  24]+0.005*[#  28]+0.005*[#  32]+0.002*[#  17]+0.002*[#  21]
          +0.002*[#  25]+0.002*[#  29]
    |psi|^2 = 0.992
==== e(  10) =   -10.76511 eV ==== 
     psi = 0.100*[#   4]+0.100*[#   8]+0.100*[#  12]+0.100*[#  16]+0.061*[#   2]
          +0.061*[#   6]+0.061*[#  10]+0.061*[#  14]+0.051*[#   3]+0.051*[#   7]
          +0.051*[#  11]+0.051*[#  15]+0.037*[#  19]+0.037*[#  23]+0.037*[#  27]
          +0.037*[#  31]+0.035*[#  18]+0.035*[#  22]+0.035*[#  26]+0.035*[#  30]
          +0.010*[#  20]+0.010*[#  24]+0.010*[#  28]+0.010*[#  32]+0.007*[#   1]
          +0.007*[#   5]+0.007*[#   9]+0.007*[#  13]
    |psi|^2 = 1.207
==== e(  11) =    -9.60352 eV ==== 
     psi = 0.039*[#   4]+0.039*[#   8]+0.039*[#  12]+0.039*[#  16]+0.025*[#  18]
          +0.025*[#  22]+0.025*[#  26]+0.025*[#  30]+0.020*[#  19]+0.020*[#  23]
          +0.020*[#  27]+0.020*[#  31]+0.020*[#   3]+0.020*[#   7]+0.020*[#  11]
          +0.020*[#  15]+0.018*[#   2]+0.018*[#   6]+0.018*[#  10]+0.018*[#  14]
          +0.014*[#  17]+0.014*[#  21]+0.014*[#  25]+0.014*[#  29]+0.002*[#  20]
          +0.002*[#  24]+0.002*[#  28]+0.002*[#  32]
    |psi|^2 = 0.551
==== e(  12) =    -9.53943 eV ==== 
     psi = 0.051*[#   2]+0.051*[#   6]+0.051*[#  10]+0.051*[#  14]+0.037*[#   4]
          +0.037*[#   8]+0.037*[#  12]+0.037*[#  16]+0.037*[#  18]+0.037*[#  22]
          +0.037*[#  26]+0.037*[#  30]+0.027*[#  19]+0.027*[#  23]+0.027*[#  27]
          +0.027*[#  31]+0.024*[#   3]+0.024*[#   7]+0.024*[#  11]+0.024*[#  15]
          +0.013*[#  17]+0.013*[#  21]+0.013*[#  25]+0.013*[#  29]+0.002*[#  20]
          +0.002*[#  24]+0.002*[#  28]+0.002*[#  32]
    |psi|^2 = 0.767
==== e(  13) =    -9.07430 eV ==== 
     psi = 0.087*[#  20]+0.087*[#  24]+0.087*[#  28]+0.087*[#  32]+0.075*[#  18]
          +0.075*[#  22]+0.075*[#  26]+0.075*[#  30]+0.066*[#   2]+0.066*[#   6]
          +0.066*[#  10]+0.066*[#  14]+0.010*[#  17]+0.010*[#  21]+0.010*[#  25]
          +0.010*[#  29]+0.007*[#   3]+0.007*[#   7]+0.007*[#  11]+0.007*[#  15]
          +0.003*[#  19]+0.003*[#  23]+0.003*[#  27]+0.003*[#  31]
    |psi|^2 = 0.996
==== e(  14) =    -8.75158 eV ==== 
     psi = 0.088*[#  20]+0.088*[#  24]+0.088*[#  28]+0.088*[#  32]+0.010*[#  17]
          +0.010*[#  21]+0.010*[#  25]+0.010*[#  29]+0.007*[#   2]+0.007*[#   6]
          +0.007*[#  10]+0.007*[#  14]+0.005*[#   3]+0.005*[#   7]+0.005*[#  11]
          +0.005*[#  15]+0.003*[#  18]+0.003*[#  22]+0.003*[#  26]+0.003*[#  30]
          +0.002*[#   4]+0.002*[#   8]+0.002*[#  12]+0.002*[#  16]+0.001*[#   1]
          +0.001*[#   5]+0.001*[#   9]+0.001*[#  13]
    |psi|^2 = 0.466
==== e(  15) =    -7.14041 eV ==== 
     psi = 0.182*[#  19]+0.182*[#  23]+0.182*[#  27]+0.182*[#  31]+0.072*[#  18]
          +0.072*[#  22]+0.072*[#  26]+0.072*[#  30]+0.070*[#   2]+0.070*[#   6]
          +0.070*[#  10]+0.070*[#  14]+0.031*[#  20]+0.031*[#  24]+0.031*[#  28]
          +0.031*[#  32]+0.009*[#   4]+0.009*[#   8]+0.009*[#  12]+0.009*[#  16]
          +0.007*[#   1]+0.007*[#   5]+0.007*[#   9]+0.007*[#  13]+0.002*[#  17]
          +0.002*[#  21]+0.002*[#  25]+0.002*[#  29]
    |psi|^2 = 1.496
==== e(  16) =    -6.99768 eV ==== 
     psi = 0.174*[#  19]+0.174*[#  23]+0.174*[#  27]+0.174*[#  31]+0.033*[#  20]
          +0.033*[#  24]+0.033*[#  28]+0.033*[#  32]+0.012*[#   4]+0.012*[#   8]
          +0.012*[#  12]+0.012*[#  16]+0.009*[#   1]+0.009*[#   5]+0.009*[#   9]
          +0.009*[#  13]+0.005*[#   2]+0.005*[#   6]+0.005*[#  10]+0.005*[#  14]
          +0.001*[#  17]+0.001*[#  21]+0.001*[#  25]+0.001*[#  29]
    |psi|^2 = 0.944
==== e(  17) =    -6.34094 eV ==== 
     psi = 0.154*[#  19]+0.154*[#  23]+0.154*[#  27]+0.154*[#  31]+0.041*[#  18]
          +0.041*[#  22]+0.041*[#  26]+0.041*[#  30]+0.034*[#  20]+0.034*[#  24]
          +0.034*[#  28]+0.034*[#  32]+0.009*[#   4]+0.009*[#   8]+0.009*[#  12]
          +0.009*[#  16]+0.006*[#   1]+0.006*[#   5]+0.006*[#   9]+0.006*[#  13]
          +0.003*[#   2]+0.003*[#   6]+0.003*[#  10]+0.003*[#  14]+0.001*[#   3]
          +0.001*[#   7]+0.001*[#  11]+0.001*[#  15]+0.001*[#  17]+0.001*[#  21]
          +0.001*[#  25]+0.001*[#  29]
    |psi|^2 = 0.995
==== e(  18) =    -6.26843 eV ==== 
     psi = 0.171*[#  19]+0.171*[#  23]+0.171*[#  27]+0.171*[#  31]+0.154*[#  18]
          +0.154*[#  22]+0.154*[#  26]+0.154*[#  30]+0.027*[#  20]+0.027*[#  24]
          +0.027*[#  28]+0.027*[#  32]+0.011*[#   4]+0.011*[#   8]+0.011*[#  12]
          +0.011*[#  16]+0.005*[#   1]+0.005*[#   5]+0.005*[#   9]+0.005*[#  13]
          +0.004*[#   3]+0.004*[#   7]+0.004*[#  11]+0.004*[#  15]+0.001*[#   2]
          +0.001*[#   6]+0.001*[#  10]+0.001*[#  14]
    |psi|^2 = 1.496
==== e(  19) =    -5.99775 eV ==== 
     psi = 0.180*[#  20]+0.180*[#  24]+0.180*[#  28]+0.180*[#  32]+0.028*[#  18]
          +0.028*[#  22]+0.028*[#  26]+0.028*[#  30]+0.021*[#  19]+0.021*[#  23]
          +0.021*[#  27]+0.021*[#  31]+0.014*[#   1]+0.014*[#   5]+0.014*[#   9]
          +0.014*[#  13]+0.010*[#   3]+0.010*[#   7]+0.010*[#  11]+0.010*[#  15]
          +0.003*[#   4]+0.003*[#   8]+0.003*[#  12]+0.003*[#  16]+0.002*[#   2]
          +0.002*[#   6]+0.002*[#  10]+0.002*[#  14]
    |psi|^2 = 1.036
==== e(  20) =    -5.70131 eV ==== 
     psi = 0.178*[#  20]+0.178*[#  24]+0.178*[#  28]+0.178*[#  32]+0.171*[#  18]
          +0.171*[#  22]+0.171*[#  26]+0.171*[#  30]+0.021*[#  19]+0.021*[#  23]
          +0.021*[#  27]+0.021*[#  31]+0.015*[#   3]+0.015*[#   7]+0.015*[#  11]
          +0.015*[#  15]+0.013*[#   1]+0.013*[#   5]+0.013*[#   9]+0.013*[#  13]
          +0.004*[#   2]+0.004*[#   6]+0.004*[#  10]+0.004*[#  14]+0.003*[#   4]
          +0.003*[#   8]+0.003*[#  12]+0.003*[#  16]
    |psi|^2 = 1.620
==== e(  21) =    -4.94835 eV ==== 
     psi = 0.104*[#  20]+0.104*[#  24]+0.104*[#  28]+0.104*[#  32]+0.056*[#  18]
          +0.056*[#  22]+0.056*[#  26]+0.056*[#  30]+0.036*[#  19]+0.036*[#  23]
          +0.036*[#  27]+0.036*[#  31]+0.024*[#   4]+0.024*[#   8]+0.024*[#  12]
          +0.024*[#  16]+0.013*[#   3]+0.013*[#   7]+0.013*[#  11]+0.013*[#  15]
          +0.008*[#   2]+0.008*[#   6]+0.008*[#  10]+0.008*[#  14]+0.006*[#   1]
          +0.006*[#   5]+0.006*[#   9]+0.006*[#  13]
    |psi|^2 = 0.989
==== e(  22) =    -4.91292 eV ==== 
     psi = 0.092*[#  20]+0.092*[#  24]+0.092*[#  28]+0.092*[#  32]+0.048*[#  19]
          +0.048*[#  23]+0.048*[#  27]+0.048*[#  31]+0.036*[#  18]+0.036*[#  22]
          +0.036*[#  26]+0.036*[#  30]+0.033*[#   4]+0.033*[#   8]+0.033*[#  12]
          +0.033*[#  16]+0.016*[#   3]+0.016*[#   7]+0.016*[#  11]+0.016*[#  15]
          +0.013*[#   2]+0.013*[#   6]+0.013*[#  10]+0.013*[#  14]+0.005*[#   1]
          +0.005*[#   5]+0.005*[#   9]+0.005*[#  13]
    |psi|^2 = 0.973
==== e(  23) =     3.50132 eV ==== 
     psi = 0.044*[#  18]+0.044*[#  22]+0.044*[#  26]+0.044*[#  30]+0.023*[#   3]
          +0.023*[#   7]+0.023*[#  11]+0.023*[#  15]+0.014*[#  19]+0.014*[#  23]
          +0.014*[#  27]+0.014*[#  31]+0.011*[#  17]+0.011*[#  21]+0.011*[#  25]
          +0.011*[#  29]+0.009*[#   2]+0.009*[#   6]+0.009*[#  10]+0.009*[#  14]
          +0.005*[#  20]+0.005*[#  24]+0.005*[#  28]+0.005*[#  32]+0.003*[#   4]
          +0.003*[#   8]+0.003*[#  12]+0.003*[#  16]+0.003*[#   1]+0.003*[#   5]
          +0.003*[#   9]+0.003*[#  13]
    |psi|^2 = 0.450
==== e(  24) =     4.08285 eV ==== 
     psi = 0.048*[#  18]+0.048*[#  22]+0.048*[#  26]+0.048*[#  30]+0.025*[#   3]
          +0.025*[#   7]+0.025*[#  11]+0.025*[#  15]+0.016*[#   2]+0.016*[#   6]
          +0.016*[#  10]+0.016*[#  14]+0.012*[#  19]+0.012*[#  23]+0.012*[#  27]
          +0.012*[#  31]+0.010*[#  17]+0.010*[#  21]+0.010*[#  25]+0.010*[#  29]
          +0.005*[#   1]+0.005*[#   5]+0.005*[#   9]+0.005*[#  13]+0.004*[#  20]
          +0.004*[#  24]+0.004*[#  28]+0.004*[#  32]+0.004*[#   4]+0.004*[#   8]
          +0.004*[#  12]+0.004*[#  16]
    |psi|^2 = 0.498
==== e(  25) =     4.97951 eV ==== 
     psi = 0.075*[#   1]+0.075*[#   5]+0.075*[#   9]+0.075*[#  13]+0.060*[#   2]
          +0.060*[#   6]+0.060*[#  10]+0.060*[#  14]+0.035*[#   3]+0.035*[#   7]
          +0.035*[#  11]+0.035*[#  15]+0.022*[#  20]+0.022*[#  24]+0.022*[#  28]
          +0.022*[#  32]+0.020*[#  18]+0.020*[#  22]+0.020*[#  26]+0.020*[#  30]
          +0.006*[#  17]+0.006*[#  21]+0.006*[#  25]+0.006*[#  29]+0.005*[#   4]
          +0.005*[#   8]+0.005*[#  12]+0.005*[#  16]
    |psi|^2 = 0.892
==== e(  26) =     5.59088 eV ==== 
     psi = 0.071*[#   1]+0.071*[#   5]+0.071*[#   9]+0.071*[#  13]+0.068*[#   2]
          +0.068*[#   6]+0.068*[#  10]+0.068*[#  14]+0.025*[#   3]+0.025*[#   7]
          +0.025*[#  11]+0.025*[#  15]+0.021*[#  20]+0.021*[#  24]+0.021*[#  28]
          +0.021*[#  32]+0.021*[#  18]+0.021*[#  22]+0.021*[#  26]+0.021*[#  30]
          +0.006*[#  17]+0.006*[#  21]+0.006*[#  25]+0.006*[#  29]+0.003*[#   4]
          +0.003*[#   8]+0.003*[#  12]+0.003*[#  16]
    |psi|^2 = 0.865

 k =   0.4600000000  0.0000000000  0.0000000000
==== e(   1) =   -27.14199 eV ==== 
     psi = 0.190*[#  17]+0.190*[#  21]+0.190*[#  25]+0.190*[#  29]+0.028*[#   1]
          +0.028*[#   5]+0.028*[#   9]+0.028*[#  13]+0.011*[#   2]+0.011*[#   6]
          +0.011*[#  10]+0.011*[#  14]+0.007*[#   3]+0.007*[#   7]+0.007*[#  11]
          +0.007*[#  15]+0.006*[#  18]+0.006*[#  22]+0.006*[#  26]+0.006*[#  30]
          +0.005*[#   4]+0.005*[#   8]+0.005*[#  12]+0.005*[#  16]+0.001*[#  20]
          +0.001*[#  24]+0.001*[#  28]+0.001*[#  32]
    |psi|^2 = 0.998
==== e(   2) =   -26.98662 eV ==== 
     psi = 0.194*[#  17]+0.194*[#  21]+0.194*[#  25]+0.194*[#  29]+0.014*[#   1]
          +0.014*[#   5]+0.014*[#   9]+0.014*[#  13]+0.007*[#   2]+0.007*[#   6]
          +0.007*[#  10]+0.007*[#  14]+0.002*[#   3]+0.002*[#   7]+0.002*[#  11]
          +0.002*[#  15]+0.002*[#   4]+0.002*[#   8]+0.002*[#  12]+0.002*[#  16]
          +0.001*[#  20]+0.001*[#  24]+0.001*[#  28]+0.001*[#  32]
    |psi|^2 = 0.889
==== e(   3) =   -26.93691 eV ==== 
     psi = 0.196*[#  17]+0.196*[#  21]+0.196*[#  25]+0.196*[#  29]+0.030*[#   2]
          +0.030*[#   6]+0.030*[#  10]+0.030*[#  14]+0.024*[#   1]+0.024*[#   5]
          +0.024*[#   9]+0.024*[#  13]+0.007*[#   4]+0.007*[#   8]+0.007*[#  12]
          +0.007*[#  16]+0.005*[#  18]+0.005*[#  22]+0.005*[#  26]+0.005*[#  30]
          +0.005*[#   3]+0.005*[#   7]+0.005*[#  11]+0.005*[#  15]
    |psi|^2 = 1.072
==== e(   4) =   -26.80455 eV ==== 
     psi = 0.199*[#  17]+0.199*[#  21]+0.199*[#  25]+0.199*[#  29]+0.013*[#   1]
          +0.013*[#   5]+0.013*[#   9]+0.013*[#  13]+0.003*[#   4]+0.003*[#   8]
          +0.003*[#  12]+0.003*[#  16]+0.002*[#   2]+0.002*[#   6]+0.002*[#  10]
          +0.002*[#  14]+0.002*[#   3]+0.002*[#   7]+0.002*[#  11]+0.002*[#  15]
          +0.001*[#  20]+0.001*[#  24]+0.001*[#  28]+0.001*[#  32]
    |psi|^2 = 0.881
==== e(   5) =   -16.25731 eV ==== 
     psi = 0.108*[#   1]+0.108*[#   5]+0.108*[#   9]+0.108*[#  13]+0.069*[#   3]
          +0.069*[#   7]+0.069*[#  11]+0.069*[#  15]+0.031*[#  17]+0.031*[#  21]
          +0.031*[#  25]+0.031*[#  29]+0.019*[#   2]+0.019*[#   6]+0.019*[#  10]
          +0.019*[#  14]+0.017*[#  18]+0.017*[#  22]+0.017*[#  26]+0.017*[#  30]
          +0.002*[#  19]+0.002*[#  20]+0.002*[#  23]+0.002*[#  24]+0.002*[#  27]
          +0.002*[#  28]+0.002*[#  31]+0.002*[#  32]
    |psi|^2 = 0.988
==== e(   6) =   -15.35593 eV ==== 
     psi = 0.103*[#   1]+0.103*[#   5]+0.103*[#   9]+0.103*[#  13]+0.075*[#   3]
          +0.075*[#   7]+0.075*[#  11]+0.075*[#  15]+0.069*[#   2]+0.069*[#   6]
          +0.069*[#  10]+0.069*[#  14]+0.027*[#  17]+0.027*[#  21]+0.027*[#  25]
          +0.027*[#  29]+0.003*[#  19]+0.003*[#  23]+0.003*[#  27]+0.003*[#  31]
          +0.002*[#  18]+0.002*[#  20]+0.002*[#  22]+0.002*[#  24]+0.002*[#  26]
          +0.002*[#  28]+0.002*[#  30]+0.002*[#  32]+0.001*[#   4]+0.001*[#   8]
          +0.001*[#  12]+0.001*[#  16]
    |psi|^2 = 1.126
==== e(   7) =   -13.14739 eV ==== 
     psi = 0.071*[#   1]+0.071*[#   5]+0.071*[#   9]+0.071*[#  13]+0.064*[#   3]
          +0.064*[#   7]+0.064*[#  11]+0.064*[#  15]+0.037*[#   4]+0.037*[#   8]
          +0.037*[#  12]+0.037*[#  16]+0.022*[#  20]+0.022*[#  24]+0.022*[#  28]
          +0.022*[#  32]+0.021*[#  17]+0.021*[#  21]+0.021*[#  25]+0.021*[#  29]
          +0.021*[#  18]+0.021*[#  22]+0.021*[#  26]+0.021*[#  30]+0.016*[#   2]
          +0.016*[#   6]+0.016*[#  10]+0.016*[#  14]+0.007*[#  19]+0.007*[#  23]
          +0.007*[#  27]+0.007*[#  31]
    |psi|^2 = 1.032
==== e(   8) =   -12.33470 eV ==== 
     psi = 0.075*[#   2]+0.075*[#   6]+0.075*[#  10]+0.075*[#  14]+0.074*[#   3]
          +0.074*[#   7]+0.074*[#  11]+0.074*[#  15]+0.059*[#   1]+0.059*[#   5]
          +0.059*[#   9]+0.059*[#  13]+0.027*[#   4]+0.027*[#   8]+0.027*[#  12]
          +0.027*[#  16]+0.022*[#  20]+0.022*[#  24]+0.022*[#  28]+0.022*[#  32]
          +0.019*[#  17]+0.019*[#  21]+0.019*[#  25]+0.019*[#  29]+0.013*[#  19]
          +0.013*[#  23]+0.013*[#  27]+0.013*[#  31]+0.003*[#  18]+0.003*[#  22]
          +0.003*[#  26]+0.003*[#  30]
    |psi|^2 = 1.168
==== e(   9) =   -11.16353 eV ==== 
     psi = 0.100*[#   4]+0.100*[#   8]+0.100*[#  12]+0.100*[#  16]+0.063*[#   3]
          +0.063*[#   7]+0.063*[#  11]+0.063*[#  15]+0.035*[#  19]+0.035*[#  23]
          +0.035*[#  27]+0.035*[#  31]+0.025*[#  18]+0.025*[#  22]+0.025*[#  26]
          +0.025*[#  30]+0.013*[#   2]+0.013*[#   6]+0.013*[#  10]+0.013*[#  14]
          +0.007*[#   1]+0.007*[#   5]+0.007*[#   9]+0.007*[#  13]+0.004*[#  20]
          +0.004*[#  24]+0.004*[#  28]+0.004*[#  32]+0.002*[#  17]+0.002*[#  21]
          +0.002*[#  25]+0.002*[#  29]
    |psi|^2 = 0.992
==== e(  10) =   -10.70477 eV ==== 
     psi = 0.100*[#   4]+0.100*[#   8]+0.100*[#  12]+0.100*[#  16]+0.063*[#   2]
          +0.063*[#   6]+0.063*[#  10]+0.063*[#  14]+0.050*[#   3]+0.050*[#   7]
          +0.050*[#  11]+0.050*[#  15]+0.037*[#  19]+0.037*[#  23]+0.037*[#  27]
          +0.037*[#  31]+0.035*[#  18]+0.035*[#  22]+0.035*[#  26]+0.035*[#  30]
          +0.011*[#  20]+0.011*[#  24]+0.011*[#  28]+0.011*[#  32]+0.007*[#   1]
          +0.007*[#   5]+0.007*[#   9]+0.007*[#  13]
    |psi|^2 = 1.211
==== e(  11) =    -9.61572 eV ==== 
     psi = 0.039*[#   4]+0.039*[#   8]+0.039*[#  12]+0.039*[#  16]+0.024*[#  18]
          +0.024*[#  22]+0.024*[#  26]+0.024*[#  30]+0.020*[#   3]+0.020*[#   7]
          +0.020*[#  11]+0.020*[#  15]+0.019*[#   2]+0.019*[#   6]+0.019*[#  10]
          +0.019*[#  14]+0.019*[#  19]+0.019*[#  23]+0.019*[#  27]+0.019*[#  31]
          +0.014*[#  17]+0.014*[#  21]+0.014*[#  25]+0.014*[#  29]+0.002*[#  20]
          +0.002*[#  24]+0.002*[#  28]+0.002*[#  32]
    |psi|^2 = 0.549
==== e(  12) =    -9.52953 eV ==== 
     psi = 0.050*[#   2]+0.050*[#   6]+0.050*[#  10]+0.050*[#  14]+0.037*[#   4]
          +0.037*[#   8]+0.037*[#  12]+0.037*[#  16]+0.037*[#  18]+0.037*[#  22]
          +0.037*[#  26]+0.037*[#  30]+0.028*[#  19]+0.028*[#  23]+0.028*[#  27]
          +0.028*[#  31]+0.025*[#   3]+0.025*[#   7]+0.025*[#  11]+0.025*[#  15]
          +0.013*[#  17]+0.013*[#  21]+0.013*[#  25]+0.013*[#  29]+0.002*[#  20]
          +0.002*[#  24]+0.002*[#  28]+0.002*[#  32]
    |psi|^2 = 0.766
==== e(  13) =    -9.12624 eV ==== 
     psi = 0.086*[#  20]+0.086*[#  24]+0.086*[#  28]+0.086*[#  32]+0.076*[#  18]
          +0.076*[#  22]+0.076*[#  26]+0.076*[#  30]+0.065*[#   2]+0.065*[#   6]
          +0.065*[#  10]+0.065*[#  14]+0.011*[#  17]+0.011*[#  21]+0.011*[#  25]
          +0.011*[#  29]+0.008*[#   3]+0.008*[#   7]+0.008*[#  11]+0.008*[#  15]
          +0.004*[#  19]+0.004*[#  23]+0.004*[#  27]+0.004*[#  31]
    |psi|^2 = 0.996
==== e(  14) =    -8.69798 eV ==== 
     psi = 0.087*[#  20]+0.087*[#  24]+0.087*[#  28]+0.087*[#  32]+0.009*[#  17]
          +0.009*[#  21]+0.009*[#  25]+0.009*[#  29]+0.008*[#   2]+0.008*[#   6]
          +0.008*[#  10]+0.008*[#  14]+0.005*[#   3]+0.005*[#   7]+0.005*[#  11]
          +0.005*[#  15]+0.004*[#  18]+0.004*[#  22]+0.004*[#  26]+0.004*[#  30]
          +0.003*[#   4]+0.003*[#   8]+0.003*[#  12]+0.003*[#  16]+0.001*[#   1]
          +0.001*[#   5]+0.001*[#   9]+0.001*[#  13]
    |psi|^2 = 0.470
==== e(  15) =    -7.15151 eV ==== 
     psi = 0.183*[#  19]+0.183*[#  23]+0.183*[#  27]+0.183*[#  31]+0.073*[#  18]
          +0.073*[#  22]+0.073*[#  26]+0.073*[#  30]+0.070*[#   2]+0.070*[#   6]
          +0.070*[#  10]+0.070*[#  14]+0.032*[#  20]+0.032*[#  24]+0.032*[#  28]
          +0.032*[#  32]+0.009*[#   4]+0.009*[#   8]+0.009*[#  12]+0.009*[#  16]
          +0.006*[#   1]+0.006*[#   5]+0.006*[#   9]+0.006*[#  13]+0.002*[#  17]
          +0.002*[#  21]+0.002*[#  25]+0.002*[#  29]
    |psi|^2 = 1.499
==== e(  16) =    -6.96179 eV ==== 
     psi = 0.172*[#  19]+0.172*[#  23]+0.172*[#  27]+0.172*[#  31]+0.034*[#  20]
          +0.034*[#  24]+0.034*[#  28]+0.034*[#  32]+0.013*[#   4]+0.013*[#   8]
          +0.013*[#  12]+0.013*[#  16]+0.009*[#   1]+0.009*[#   5]+0.009*[#   9]
          +0.009*[#  13]+0.005*[#   2]+0.005*[#   6]+0.005*[#  10]+0.005*[#  14]
          +0.001*[#  17]+0.001*[#  21]+0.001*[#  25]+0.001*[#  29]
    |psi|^2 = 0.943
==== e(  17) =    -6.34907 eV ==== 
     psi = 0.151*[#  19]+0.151*[#  23]+0.151*[#  27]+0.151*[#  31]+0.043*[#  18]
          +0.043*[#  22]+0.043*[#  26]+0.043*[#  30]+0.035*[#  20]+0.035*[#  24]
          +0.035*[#  28]+0.035*[#  32]+0.009*[#   4]+0.009*[#   8]+0.009*[#  12]
          +0.009*[#  16]+0.006*[#   1]+0.006*[#   5]+0.006*[#   9]+0.006*[#  13]
          +0.003*[#   2]+0.003*[#   6]+0.003*[#  10]+0.003*[#  14]+0.002*[#  17]
          +0.002*[#  21]+0.002*[#  25]+0.002*[#  29]+0.001*[#   3]+0.001*[#   7]
          +0.001*[#  11]+0.001*[#  15]
    |psi|^2 = 0.996
==== e(  18) =    -6.25134 eV ==== 
     psi = 0.173*[#  19]+0.173*[#  23]+0.173*[#  27]+0.173*[#  31]+0.151*[#  18]
          +0.151*[#  22]+0.151*[#  26]+0.151*[#  30]+0.026*[#  20]+0.026*[#  24]
          +0.026*[#  28]+0.026*[#  32]+0.011*[#   4]+0.011*[#   8]+0.011*[#  12]
          +0.011*[#  16]+0.005*[#   1]+0.005*[#   3]+0.005*[#   5]+0.005*[#   7]
          +0.005*[#   9]+0.005*[#  11]+0.005*[#  13]+0.005*[#  15]+0.001*[#   2]
          +0.001*[#   6]+0.001*[#  10]+0.001*[#  14]
    |psi|^2 = 1.491
==== e(  19) =    -6.04605 eV ==== 
     psi = 0.180*[#  20]+0.180*[#  24]+0.180*[#  28]+0.180*[#  32]+0.026*[#  18]
          +0.026*[#  22]+0.026*[#  26]+0.026*[#  30]+0.022*[#  19]+0.022*[#  23]
          +0.022*[#  27]+0.022*[#  31]+0.014*[#   1]+0.014*[#   5]+0.014*[#   9]
          +0.014*[#  13]+0.010*[#   3]+0.010*[#   7]+0.010*[#  11]+0.010*[#  15]
          +0.003*[#   4]+0.003*[#   8]+0.003*[#  12]+0.003*[#  16]+0.002*[#   2]
          +0.002*[#   6]+0.002*[#  10]+0.002*[#  14]
    |psi|^2 = 1.027
==== e(  20) =    -5.65119 eV ==== 
     psi = 0.177*[#  20]+0.177*[#  24]+0.177*[#  28]+0.177*[#  32]+0.173*[#  18]
          +0.173*[#  22]+0.173*[#  26]+0.173*[#  30]+0.022*[#  19]+0.022*[#  23]
          +0.022*[#  27]+0.022*[#  31]+0.015*[#   3]+0.015*[#   7]+0.015*[#  11]
          +0.015*[#  15]+0.013*[#   1]+0.013*[#   5]+0.013*[#   9]+0.013*[#  13]
          +0.005*[#   2]+0.005*[#   6]+0.005*[#  10]+0.005*[#  14]+0.003*[#   4]
          +0.003*[#   8]+0.003*[#  12]+0.003*[#  16]
    |psi|^2 = 1.633
==== e(  21) =    -4.94785 eV ==== 
     psi = 0.106*[#  20]+0.106*[#  24]+0.106*[#  28]+0.106*[#  32]+0.058*[#  18]
          +0.058*[#  22]+0.058*[#  26]+0.058*[#  30]+0.034*[#  19]+0.034*[#  23]
          +0.034*[#  27]+0.034*[#  31]+0.022*[#   4]+0.022*[#   8]+0.022*[#  12]
          +0.022*[#  16]+0.013*[#   3]+0.013*[#   7]+0.013*[#  11]+0.013*[#  15]
          +0.008*[#   2]+0.008*[#   6]+0.008*[#  10]+0.008*[#  14]+0.006*[#   1]
          +0.006*[#   5]+0.006*[#   9]+0.006*[#  13]
    |psi|^2 = 0.989
==== e(  22) =    -4.90001 eV ==== 
     psi = 0.091*[#  20]+0.091*[#  24]+0.091*[#  28]+0.091*[#  32]+0.050*[#  19]
          +0.050*[#  23]+0.050*[#  27]+0.050*[#  31]+0.034*[#   4]+0.034*[#   8]
          +0.034*[#  12]+0.034*[#  16]+0.034*[#  18]+0.034*[#  22]+0.034*[#  26]
          +0.034*[#  30]+0.016*[#   3]+0.016*[#   7]+0.016*[#  11]+0.016*[#  15]
          +0.013*[#   2]+0.013*[#   6]+0.013*[#  10]+0.013*[#  14]+0.005*[#   1]
          +0.005*[#   5]+0.005*[#   9]+0.005*[#  13]
    |psi|^2 = 0.972
==== e(  23) =     3.41048 eV ==== 
     psi = 0.042*[#  18]+0.042*[#  22]+0.042*[#  26]+0.042*[#  30]+0.022*[#   3]
          +0.022*[#   7]+0.022*[#  11]+0.022*[#  15]+0.015*[#  19]+0.015*[#  23]
          +0.015*[#  27]+0.015*[#  31]+0.012*[#  17]+0.012*[#  21]+0.012*[#  25]
          +0.012*[#  29]+0.009*[#   2]+0.009*[#   6]+0.009*[#  10]+0.009*[#  14]
          +0.006*[#  20]+0.006*[#  24]+0.006*[#  28]+0.006*[#  32]+0.003*[#   4]
          +0.003*[#   8]+0.003*[#  12]+0.003*[#  16]+0.002*[#   1]+0.002*[#   5]
          +0.002*[#   9]+0.002*[#  13]
    |psi|^2 = 0.440
==== e(  24) =     4.18575 eV ==== 
     psi = 0.050*[#  18]+0.050*[#  22]+0.050*[#  26]+0.050*[#  30]+0.025*[#   3]
          +0.025*[#   7]+0.025*[#  11]+0.025*[#  15]+0.016*[#   2]+0.016*[#   6]
          +0.016*[#  10]+0.016*[#  14]+0.012*[#  19]+0.012*[#  23]+0.012*[#  27]
          +0.012*[#  31]+0.010*[#  17]+0.010*[#  21]+0.010*[#  25]+0.010*[#  29]
          +0.006*[#   1]+0.006*[#   5]+0.006*[#   9]+0.006*[#  13]+0.004*[#   4]
          +0.004*[#   8]+0.004*[#  12]+0.004*[#  16]+0.004*[#  20]+0.004*[#  24]
          +0.004*[#  28]+0.004*[#  32]
    |psi|^2 = 0.509
==== e(  25) =     4.88840 eV ==== 
     psi = 0.075*[#   1]+0.075*[#   5]+0.075*[#   9]+0.075*[#  13]+0.059*[#   2]
          +0.059*[#   6]+0.059*[#  10]+0.059*[#  14]+0.037*[#   3]+0.037*[#   7]
          +0.037*[#  11]+0.037*[#  15]+0.022*[#  20]+0.022*[#  24]+0.022*[#  28]
          +0.022*[#  32]+0.019*[#  18]+0.019*[#  22]+0.019*[#  26]+0.019*[#  30]
          +0.006*[#  17]+0.006*[#  21]+0.006*[#  25]+0.006*[#  29]+0.005*[#   4]
          +0.005*[#   8]+0.005*[#  12]+0.005*[#  16]
    |psi|^2 = 0.896
==== e(  26) =     5.70289 eV ==== 
     psi = 0.070*[#   1]+0.070*[#   5]+0.070*[#   9]+0.070*[#  13]+0.070*[#   2]
          +0.070*[#   6]+0.070*[#  10]+0.070*[#  14]+0.024*[#   3]+0.024*[#   7]
          +0.024*[#  11]+0.024*[#  15]+0.021*[#  20]+0.021*[#  24]+0.021*[#  28]
          +0.021*[#  32]+0.021*[#  18]+0.021*[#  22]+0.021*[#  26]+0.021*[#  30]
          +0.007*[#  17]+0.007*[#  21]+0.007*[#  25]+0.007*[#  29]+0.003*[#   4]
          +0.003*[#   8]+0.003*[#  12]+0.003*[#  16]
    |psi|^2 = 0.860

 k =   0.4500000000  0.0000000000  0.0000000000
==== e(   1) =   -27.17086 eV ==== 
     psi = 0.190*[#  17]+0.190*[#  21]+0.190*[#  25]+0.190*[#  29]+0.028*[#   1]
          +0.028*[#   5]+0.028*[#   9]+0.028*[#  13]+0.011*[#   2]+0.011*[#   6]
          +0.011*[#  10]+0.011*[#  14]+0.008*[#   3]+0.008*[#   7]+0.008*[#  11]
          +0.008*[#  15]+0.006*[#  18]+0.006*[#  22]+0.006*[#  26]+0.006*[#  30]
          +0.005*[#   4]+0.005*[#   8]+0.005*[#  12]+0.005*[#  16]+0.001*[#  20]
          +0.001*[#  24]+0.001*[#  28]+0.001*[#  32]
    |psi|^2 = 0.998
==== e(   2) =   -27.01211 eV ==== 
     psi = 0.194*[#  17]+0.194*[#  21]+0.194*[#  25]+0.194*[#  29]+0.015*[#   1]
          +0.015*[#   5]+0.015*[#   9]+0.015*[#  13]+0.008*[#   2]+0.008*[#   6]
          +0.008*[#  10]+0.008*[#  14]+0.002*[#   3]+0.002*[#   7]+0.002*[#  11]
          +0.002*[#  15]+0.002*[#   4]+0.002*[#   8]+0.002*[#  12]+0.002*[#  16]
          +0.001*[#  20]+0.001*[#  24]+0.001*[#  28]+0.001*[#  32]
    |psi|^2 = 0.888
==== e(   3) =   -26.91506 eV ==== 
     psi = 0.196*[#  17]+0.196*[#  21]+0.196*[#  25]+0.196*[#  29]+0.030*[#   2]
          +0.030*[#   6]+0.030*[#  10]+0.030*[#  14]+0.023*[#   1]+0.023*[#   5]
          +0.023*[#   9]+0.023*[#  13]+0.008*[#   4]+0.008*[#   8]+0.008*[#  12]
          +0.008*[#  16]+0.005*[#  18]+0.005*[#  22]+0.005*[#  26]+0.005*[#  30]
          +0.004*[#   3]+0.004*[#   7]+0.004*[#  11]+0.004*[#  15]
    |psi|^2 = 1.074
==== e(   4) =   -26.78499 eV ==== 
     psi = 0.200*[#  17]+0.200*[#  21]+0.200*[#  25]+0.200*[#  29]+0.013*[#   1]
          +0.013*[#   5]+0.013*[#   9]+0.013*[#  13]+0.003*[#   4]+0.003*[#   8]
          +0.003*[#  12]+0.003*[#  16]+0.002*[#   2]+0.002*[#   6]+0.002*[#  10]
          +0.002*[#  14]+0.001*[#   3]+0.001*[#   7]+0.001*[#  11]+0.001*[#  15]
          +0.001*[#  20]+0.001*[#  24]+0.001*[#  28]+0.001*[#  32]
    |psi|^2 = 0.882
==== e(   5) =   -16.36300 eV ==== 
     psi = 0.109*[#   1]+0.109*[#   5]+0.109*[#   9]+0.109*[#  13]+0.068*[#   3]
          +0.068*[#   7]+0.068*[#  11]+0.068*[#  15]+0.032*[#  17]+0.032*[#  21]
          +0.032*[#  25]+0.032*[#  29]+0.019*[#   2]+0.019*[#   6]+0.019*[#  10]
          +0.019*[#  14]+0.017*[#  18]+0.017*[#  22]+0.017*[#  26]+0.017*[#  30]
          +0.002*[#  19]+0.002*[#  20]+0.002*[#  23]+0.002*[#  24]+0.002*[#  27]
          +0.002*[#  28]+0.002*[#  31]+0.002*[#  32]
    |psi|^2 = 0.987
==== e(   6) =   -15.23827 eV ==== 
     psi = 0.103*[#   1]+0.103*[#   5]+0.103*[#   9]+0.103*[#  13]+0.075*[#   3]
          +0.075*[#   7]+0.075*[#  11]+0.075*[#  15]+0.068*[#   2]+0.068*[#   6]
          +0.068*[#  10]+0.068*[#  14]+0.027*[#  17]+0.027*[#  21]+0.027*[#  25]
          +0.027*[#  29]+0.003*[#  19]+0.003*[#  23]+0.003*[#  27]+0.003*[#  31]
          +0.002*[#   4]+0.002*[#   8]+0.002*[#  12]+0.002*[#  16]+0.002*[#  20]
          +0.002*[#  24]+0.002*[#  28]+0.002*[#  32]+0.002*[#  18]+0.002*[#  22]
          +0.002*[#  26]+0.002*[#  30]
    |psi|^2 = 1.119
==== e(   7) =   -13.24311 eV ==== 
     psi = 0.072*[#   1]+0.072*[#   5]+0.072*[#   9]+0.072*[#  13]+0.062*[#   3]
          +0.062*[#   7]+0.062*[#  11]+0.062*[#  15]+0.038*[#   4]+0.038*[#   8]
          +0.038*[#  12]+0.038*[#  16]+0.022*[#  20]+0.022*[#  24]+0.022*[#  28]
          +0.022*[#  32]+0.021*[#  17]+0.021*[#  18]+0.021*[#  21]+0.021*[#  22]
          +0.021*[#  25]+0.021*[#  26]+0.021*[#  29]+0.021*[#  30]+0.016*[#   2]
          +0.016*[#   6]+0.016*[#  10]+0.016*[#  14]+0.006*[#  19]+0.006*[#  23]
          +0.006*[#  27]+0.006*[#  31]
    |psi|^2 = 1.036
==== e(   8) =   -12.22826 eV ==== 
     psi = 0.075*[#   3]+0.075*[#   7]+0.075*[#  11]+0.075*[#  15]+0.075*[#   2]
          +0.075*[#   6]+0.075*[#  10]+0.075*[#  14]+0.058*[#   1]+0.058*[#   5]
          +0.058*[#   9]+0.058*[#  13]+0.025*[#   4]+0.025*[#   8]+0.025*[#  12]
          +0.025*[#  16]+0.023*[#  20]+0.023*[#  24]+0.023*[#  28]+0.023*[#  32]
          +0.018*[#  17]+0.018*[#  21]+0.018*[#  25]+0.018*[#  29]+0.014*[#  19]
          +0.014*[#  23]+0.014*[#  27]+0.014*[#  31]+0.003*[#  18]+0.003*[#  22]
          +0.003*[#  26]+0.003*[#  30]
    |psi|^2 = 1.163
==== e(   9) =   -11.21364 eV ==== 
     psi = 0.099*[#   4]+0.099*[#   8]+0.099*[#  12]+0.099*[#  16]+0.065*[#   3]
          +0.065*[#   7]+0.065*[#  11]+0.065*[#  15]+0.034*[#  19]+0.034*[#  23]
          +0.034*[#  27]+0.034*[#  31]+0.024*[#  18]+0.024*[#  22]+0.024*[#  26]
          +0.024*[#  30]+0.012*[#   2]+0.012*[#   6]+0.012*[#  10]+0.012*[#  14]
          +0.007*[#   1]+0.007*[#   5]+0.007*[#   9]+0.007*[#  13]+0.004*[#  20]
          +0.004*[#  24]+0.004*[#  28]+0.004*[#  32]+0.002*[#  17]+0.002*[#  21]
          +0.002*[#  25]+0.002*[#  29]
    |psi|^2 = 0.992
==== e(  10) =   -10.64463 eV ==== 
     psi = 0.100*[#   4]+0.100*[#   8]+0.100*[#  12]+0.100*[#  16]+0.065*[#   2]
          +0.065*[#   6]+0.065*[#  10]+0.065*[#  14]+0.048*[#   3]+0.048*[#   7]
          +0.048*[#  11]+0.048*[#  15]+0.037*[#  19]+0.037*[#  23]+0.037*[#  27]
          +0.037*[#  31]+0.034*[#  18]+0.034*[#  22]+0.034*[#  26]+0.034*[#  30]
          +0.013*[#  20]+0.013*[#  24]+0.013*[#  28]+0.013*[#  32]+0.007*[#   1]
          +0.007*[#   5]+0.007*[#   9]+0.007*[#  13]
    |psi|^2 = 1.215
==== e(  11) =    -9.62853 eV ==== 
     psi = 0.040*[#   4]+0.040*[#   8]+0.040*[#  12]+0.040*[#  16]+0.023*[#  18]
          +0.023*[#  22]+0.023*[#  26]+0.023*[#  30]+0.021*[#   2]+0.021*[#   6]
          +0.021*[#  10]+0.021*[#  14]+0.019*[#   3]+0.019*[#   7]+0.019*[#  11]
          +0.019*[#  15]+0.018*[#  19]+0.018*[#  23]+0.018*[#  27]+0.018*[#  31]
          +0.014*[#  17]+0.014*[#  21]+0.014*[#  25]+0.014*[#  29]+0.002*[#  20]
          +0.002*[#  24]+0.002*[#  28]+0.002*[#  32]
    |psi|^2 = 0.546
==== e(  12) =    -9.51960 eV ==== 
     psi = 0.048*[#   2]+0.048*[#   6]+0.048*[#  10]+0.048*[#  14]+0.037*[#   4]
          +0.037*[#   8]+0.037*[#  12]+0.037*[#  16]+0.037*[#  18]+0.037*[#  22]
          +0.037*[#  26]+0.037*[#  30]+0.028*[#  19]+0.028*[#  23]+0.028*[#  27]
          +0.028*[#  31]+0.026*[#   3]+0.026*[#   7]+0.026*[#  11]+0.026*[#  15]
          +0.013*[#  17]+0.013*[#  21]+0.013*[#  25]+0.013*[#  29]+0.002*[#  20]
          +0.002*[#  24]+0.002*[#  28]+0.002*[#  32]
    |psi|^2 = 0.764
==== e(  13) =    -9.17680 eV ==== 
     psi = 0.084*[#  20]+0.084*[#  24]+0.084*[#  28]+0.084*[#  32]+0.077*[#  18]
          +0.077*[#  22]+0.077*[#  26]+0.077*[#  30]+0.064*[#   2]+0.064*[#   6]
          +0.064*[#  10]+0.064*[#  14]+0.011*[#  17]+0.011*[#  21]+0.011*[#  25]
          +0.011*[#  29]+0.008*[#   3]+0.008*[#   7]+0.008*[#  11]+0.008*[#  15]
          +0.004*[#  19]+0.004*[#  23]+0.004*[#  27]+0.004*[#  31]
    |psi|^2 = 0.996
==== e(  14) =    -8.64485 eV ==== 
     psi = 0.087*[#  20]+0.087*[#  24]+0.087*[#  28]+0.087*[#  32]+0.009*[#  17]
          +0.009*[#  21]+0.009*[#  25]+0.009*[#  29]+0.008*[#   2]+0.008*[#   6]
          +0.008*[#  10]+0.008*[#  14]+0.005*[#   3]+0.005*[#   7]+0.005*[#  11]
          +0.005*[#  15]+0.004*[#  18]+0.004*[#  22]+0.004*[#  26]+0.004*[#  30]
          +0.003*[#   4]+0.003*[#   8]+0.003*[#  12]+0.003*[#  16]+0.001*[#   1]
          +0.001*[#   5]+0.001*[#   9]+0.001*[#  13]
    |psi|^2 = 0.474
==== e(  15) =    -7.15892 eV ==== 
     psi = 0.183*[#  19]+0.183*[#  23]+0.183*[#  27]+0.183*[#  31]+0.073*[#  18]
          +0.073*[#  22]+0.073*[#  26]+0.073*[#  30]+0.070*[#   2]+0.070*[#   6]
          +0.070*[#  10]+0.070*[#  14]+0.032*[#  20]+0.032*[#  24]+0.032*[#  28]
          +0.032*[#  32]+0.008*[#   4]+0.008*[#   8]+0.008*[#  12]+0.008*[#  16]
          +0.006*[#   1]+0.006*[#   5]+0.006*[#   9]+0.006*[#  13]+0.002*[#  17]
          +0.002*[#  21]+0.002*[#  25]+0.002*[#  29]
    |psi|^2 = 1.503
==== e(  16) =    -6.92270 eV ==== 
     psi = 0.170*[#  19]+0.170*[#  23]+0.170*[#  27]+0.170*[#  31]+0.036*[#  20]
[...]
          +0.031*[#  28]+0.031*[#  32]+0.010*[#   4]+0.010*[#   8]+0.010*[#  12]
          +0.010*[#  16]+0.005*[#   1]+0.005*[#   5]+0.005*[#   9]+0.005*[#  13]
          +0.003*[#   2]+0.003*[#   3]+0.003*[#   6]+0.003*[#   7]+0.003*[#  10]
          +0.003*[#  11]+0.003*[#  14]+0.003*[#  15]+0.001*[#  17]+0.001*[#  21]
          +0.001*[#  25]+0.001*[#  29]
    |psi|^2 = 1.509
==== e(  19) =    -5.84925 eV ==== 
     psi = 0.179*[#  20]+0.179*[#  24]+0.179*[#  28]+0.179*[#  32]+0.034*[#  18]
          +0.034*[#  22]+0.034*[#  26]+0.034*[#  30]+0.021*[#  19]+0.021*[#  23]
          +0.021*[#  27]+0.021*[#  31]+0.013*[#   1]+0.013*[#   5]+0.013*[#   9]
          +0.013*[#  13]+0.012*[#   3]+0.012*[#   7]+0.012*[#  11]+0.012*[#  15]
          +0.003*[#   4]+0.003*[#   8]+0.003*[#  12]+0.003*[#  16]+0.002*[#   2]
          +0.002*[#   6]+0.002*[#  10]+0.002*[#  14]
    |psi|^2 = 1.061
==== e(  20) =    -5.84925 eV ==== 
     psi = 0.179*[#  20]+0.179*[#  24]+0.179*[#  28]+0.179*[#  32]+0.162*[#  18]
          +0.162*[#  22]+0.162*[#  26]+0.162*[#  30]+0.021*[#  19]+0.021*[#  23]
          +0.021*[#  27]+0.021*[#  31]+0.013*[#   1]+0.013*[#   5]+0.013*[#   9]
          +0.013*[#  13]+0.012*[#   3]+0.012*[#   7]+0.012*[#  11]+0.012*[#  15]
          +0.003*[#   2]+0.003*[#   6]+0.003*[#  10]+0.003*[#  14]+0.003*[#   4]
          +0.003*[#   8]+0.003*[#  12]+0.003*[#  16]
    |psi|^2 = 1.575
==== e(  21) =    -4.93751 eV ==== 
     psi = 0.098*[#  20]+0.098*[#  24]+0.098*[#  28]+0.098*[#  32]+0.051*[#  18]
          +0.051*[#  22]+0.051*[#  26]+0.051*[#  30]+0.042*[#  19]+0.042*[#  23]
          +0.042*[#  27]+0.042*[#  31]+0.028*[#   4]+0.028*[#   8]+0.028*[#  12]
          +0.028*[#  16]+0.015*[#   3]+0.015*[#   7]+0.015*[#  11]+0.015*[#  15]
          +0.008*[#   2]+0.008*[#   6]+0.008*[#  10]+0.008*[#  14]+0.006*[#   1]
          +0.006*[#   5]+0.006*[#   9]+0.006*[#  13]
    |psi|^2 = 0.988
==== e(  22) =    -4.93751 eV ==== 
     psi = 0.098*[#  20]+0.098*[#  24]+0.098*[#  28]+0.098*[#  32]+0.042*[#  18]
          +0.042*[#  19]+0.042*[#  22]+0.042*[#  23]+0.042*[#  26]+0.042*[#  27]
          +0.042*[#  30]+0.042*[#  31]+0.028*[#   4]+0.028*[#   8]+0.028*[#  12]
          +0.028*[#  16]+0.015*[#   2]+0.015*[#   3]+0.015*[#   6]+0.015*[#   7]
          +0.015*[#  10]+0.015*[#  11]+0.015*[#  14]+0.015*[#  15]+0.006*[#   1]
          +0.006*[#   5]+0.006*[#   9]+0.006*[#  13]
    |psi|^2 = 0.978
==== e(  23) =     3.78503 eV ==== 
     psi = 0.051*[#  18]+0.051*[#  22]+0.051*[#  26]+0.051*[#  30]+0.024*[#   3]
          +0.024*[#   7]+0.024*[#  11]+0.024*[#  15]+0.013*[#  19]+0.013*[#  23]
          +0.013*[#  27]+0.013*[#  31]+0.010*[#  17]+0.010*[#  21]+0.010*[#  25]
          +0.010*[#  29]+0.008*[#   2]+0.008*[#   6]+0.008*[#  10]+0.008*[#  14]
          +0.005*[#  20]+0.005*[#  24]+0.005*[#  28]+0.005*[#  32]+0.004*[#   1]
          +0.004*[#   5]+0.004*[#   9]+0.004*[#  13]+0.004*[#   4]+0.004*[#   8]
          +0.004*[#  12]+0.004*[#  16]
    |psi|^2 = 0.477
==== e(  24) =     3.78503 eV ==== 
     psi = 0.042*[#  18]+0.042*[#  22]+0.042*[#  26]+0.042*[#  30]+0.024*[#   3]
          +0.024*[#   7]+0.024*[#  11]+0.024*[#  15]+0.015*[#   2]+0.015*[#   6]
          +0.015*[#  10]+0.015*[#  14]+0.013*[#  19]+0.013*[#  23]+0.013*[#  27]
          +0.013*[#  31]+0.010*[#  17]+0.010*[#  21]+0.010*[#  25]+0.010*[#  29]
          +0.005*[#  20]+0.005*[#  24]+0.005*[#  28]+0.005*[#  32]+0.004*[#   1]
          +0.004*[#   5]+0.004*[#   9]+0.004*[#  13]+0.004*[#   4]+0.004*[#   8]
          +0.004*[#  12]+0.004*[#  16]
    |psi|^2 = 0.466
==== e(  25) =     5.27004 eV ==== 
     psi = 0.073*[#   1]+0.073*[#   5]+0.073*[#   9]+0.073*[#  13]+0.064*[#   2]
          +0.064*[#   6]+0.064*[#  10]+0.064*[#  14]+0.030*[#   3]+0.030*[#   7]
          +0.030*[#  11]+0.030*[#  15]+0.022*[#  20]+0.022*[#  24]+0.022*[#  28]
          +0.022*[#  32]+0.020*[#  18]+0.020*[#  22]+0.020*[#  26]+0.020*[#  30]
          +0.006*[#  17]+0.006*[#  21]+0.006*[#  25]+0.006*[#  29]+0.004*[#   4]
          +0.004*[#   8]+0.004*[#  12]+0.004*[#  16]
    |psi|^2 = 0.879
==== e(  26) =     5.27004 eV ==== 
     psi = 0.073*[#   1]+0.073*[#   5]+0.073*[#   9]+0.073*[#  13]+0.064*[#   2]
          +0.064*[#   6]+0.064*[#  10]+0.064*[#  14]+0.030*[#   3]+0.030*[#   7]
          +0.030*[#  11]+0.030*[#  15]+0.022*[#  20]+0.022*[#  24]+0.022*[#  28]
          +0.022*[#  32]+0.020*[#  18]+0.020*[#  22]+0.020*[#  26]+0.020*[#  30]
          +0.006*[#  17]+0.006*[#  21]+0.006*[#  25]+0.006*[#  29]+0.004*[#   4]
          +0.004*[#   8]+0.004*[#  12]+0.004*[#  16]
    |psi|^2 = 0.879

 k =   0.5000000000  0.0000000000  0.0000000000
==== e(   1) =   -27.03315 eV ==== 
     psi = 0.193*[#  17]+0.193*[#  21]+0.193*[#  25]+0.193*[#  29]+0.026*[#   1]
          +0.026*[#   5]+0.026*[#   9]+0.026*[#  13]+0.010*[#   2]+0.010*[#   6]
          +0.010*[#  10]+0.010*[#  14]+0.006*[#   4]+0.006*[#   8]+0.006*[#  12]
          +0.006*[#  16]+0.006*[#  18]+0.006*[#  22]+0.006*[#  26]+0.006*[#  30]
          +0.006*[#   3]+0.006*[#   7]+0.006*[#  11]+0.006*[#  15]+0.001*[#  20]
          +0.001*[#  24]+0.001*[#  28]+0.001*[#  32]
    |psi|^2 = 0.998
==== e(   2) =   -27.03315 eV ==== 
     psi = 0.193*[#  17]+0.193*[#  21]+0.193*[#  25]+0.193*[#  29]+0.026*[#   1]
          +0.026*[#   5]+0.026*[#   9]+0.026*[#  13]+0.006*[#   4]+0.006*[#   8]
          +0.006*[#  12]+0.006*[#  16]+0.006*[#   2]+0.006*[#   3]+0.006*[#   6]
          +0.006*[#   7]+0.006*[#  10]+0.006*[#  11]+0.006*[#  14]+0.006*[#  15]
          +0.001*[#  20]+0.001*[#  24]+0.001*[#  28]+0.001*[#  32]
    |psi|^2 = 0.957
==== e(   3) =   -26.89026 eV ==== 
     psi = 0.197*[#  17]+0.197*[#  21]+0.197*[#  25]+0.197*[#  29]+0.014*[#   1]
          +0.014*[#   5]+0.014*[#   9]+0.014*[#  13]+0.010*[#   2]+0.010*[#   6]
          +0.010*[#  10]+0.010*[#  14]+0.006*[#  18]+0.006*[#  22]+0.006*[#  26]
          +0.006*[#  30]+0.002*[#   4]+0.002*[#   8]+0.002*[#  12]+0.002*[#  16]
          +0.002*[#   3]+0.002*[#   7]+0.002*[#  11]+0.002*[#  15]+0.001*[#  20]
          +0.001*[#  24]+0.001*[#  28]+0.001*[#  32]
    |psi|^2 = 0.931
==== e(   4) =   -26.89026 eV ==== 
     psi = 0.197*[#  17]+0.197*[#  21]+0.197*[#  25]+0.197*[#  29]+0.014*[#   1]
          +0.014*[#   5]+0.014*[#   9]+0.014*[#  13]+0.006*[#   2]+0.006*[#   6]
          +0.006*[#  10]+0.006*[#  14]+0.002*[#   4]+0.002*[#   8]+0.002*[#  12]
          +0.002*[#  16]+0.002*[#   3]+0.002*[#   7]+0.002*[#  11]+0.002*[#  15]
          +0.001*[#  20]+0.001*[#  24]+0.001*[#  28]+0.001*[#  32]
    |psi|^2 = 0.890
==== e(   5) =   -15.81758 eV ==== 
     psi = 0.105*[#   1]+0.105*[#   5]+0.105*[#   9]+0.105*[#  13]+0.073*[#   3]
          +0.073*[#   7]+0.073*[#  11]+0.073*[#  15]+0.029*[#  17]+0.029*[#  21]
          +0.029*[#  25]+0.029*[#  29]+0.018*[#  18]+0.018*[#  22]+0.018*[#  26]
          +0.018*[#  30]+0.017*[#   2]+0.017*[#   6]+0.017*[#  10]+0.017*[#  14]
          +0.002*[#  19]+0.002*[#  23]+0.002*[#  27]+0.002*[#  31]+0.002*[#  20]
          +0.002*[#  24]+0.002*[#  28]+0.002*[#  32]
    |psi|^2 = 0.989
==== e(   6) =   -15.81758 eV ==== 
     psi = 0.105*[#   1]+0.105*[#   5]+0.105*[#   9]+0.105*[#  13]+0.073*[#   2]
          +0.073*[#   3]+0.073*[#   6]+0.073*[#   7]+0.073*[#  10]+0.073*[#  11]
          +0.073*[#  14]+0.073*[#  15]+0.029*[#  17]+0.029*[#  21]+0.029*[#  25]
          +0.029*[#  29]+0.002*[#  18]+0.002*[#  19]+0.002*[#  22]+0.002*[#  23]
          +0.002*[#  26]+0.002*[#  27]+0.002*[#  30]+0.002*[#  31]+0.002*[#  20]
          +0.002*[#  24]+0.002*[#  28]+0.002*[#  32]
    |psi|^2 = 1.147
==== e(   7) =   -12.75069 eV ==== 
     psi = 0.070*[#   3]+0.070*[#   7]+0.070*[#  11]+0.070*[#  15]+0.065*[#   1]
          +0.065*[#   5]+0.065*[#   9]+0.065*[#  13]+0.032*[#   4]+0.032*[#   8]
          +0.032*[#  12]+0.032*[#  16]+0.022*[#  20]+0.022*[#  24]+0.022*[#  28]
          +0.022*[#  32]+0.020*[#  17]+0.020*[#  21]+0.020*[#  25]+0.020*[#  29]
          +0.018*[#  18]+0.018*[#  22]+0.018*[#  26]+0.018*[#  30]+0.017*[#   2]
          +0.017*[#   6]+0.017*[#  10]+0.017*[#  14]+0.010*[#  19]+0.010*[#  23]
          +0.010*[#  27]+0.010*[#  31]
    |psi|^2 = 1.016
==== e(   8) =   -12.75069 eV ==== 
     psi = 0.073*[#   2]+0.073*[#   6]+0.073*[#  10]+0.073*[#  14]+0.070*[#   3]
          +0.070*[#   7]+0.070*[#  11]+0.070*[#  15]+0.065*[#   1]+0.065*[#   5]
          +0.065*[#   9]+0.065*[#  13]+0.032*[#   4]+0.032*[#   8]+0.032*[#  12]
          +0.032*[#  16]+0.022*[#  20]+0.022*[#  24]+0.022*[#  28]+0.022*[#  32]
          +0.020*[#  17]+0.020*[#  21]+0.020*[#  25]+0.020*[#  29]+0.010*[#  19]
          +0.010*[#  23]+0.010*[#  27]+0.010*[#  31]+0.002*[#  18]+0.002*[#  22]
          +0.002*[#  26]+0.002*[#  30]
    |psi|^2 = 1.175
==== e(   9) =   -10.94341 eV ==== 
     psi = 0.100*[#   4]+0.100*[#   8]+0.100*[#  12]+0.100*[#  16]+0.056*[#   3]
          +0.056*[#   7]+0.056*[#  11]+0.056*[#  15]+0.037*[#  19]+0.037*[#  23]
          +0.037*[#  27]+0.037*[#  31]+0.026*[#  18]+0.026*[#  22]+0.026*[#  26]
          +0.026*[#  30]+0.015*[#   2]+0.015*[#   6]+0.015*[#  10]+0.015*[#  14]
          +0.008*[#   1]+0.008*[#   5]+0.008*[#   9]+0.008*[#  13]+0.006*[#  20]
          +0.006*[#  24]+0.006*[#  28]+0.006*[#  32]+0.001*[#  17]+0.001*[#  21]
          +0.001*[#  25]+0.001*[#  29]
    |psi|^2 = 0.993
==== e(  10) =   -10.94341 eV ==== 
     psi = 0.100*[#   4]+0.100*[#   8]+0.100*[#  12]+0.100*[#  16]+0.056*[#   2]
          +0.056*[#   3]+0.056*[#   6]+0.056*[#   7]+0.056*[#  10]+0.056*[#  11]
          +0.056*[#  14]+0.056*[#  15]+0.037*[#  18]+0.037*[#  19]+0.037*[#  22]
          +0.037*[#  23]+0.037*[#  26]+0.037*[#  27]+0.037*[#  30]+0.037*[#  31]
          +0.008*[#   1]+0.008*[#   5]+0.008*[#   9]+0.008*[#  13]+0.006*[#  20]
          +0.006*[#  24]+0.006*[#  28]+0.006*[#  32]+0.001*[#  17]+0.001*[#  21]
          +0.001*[#  25]+0.001*[#  29]
    |psi|^2 = 1.200
==== e(  11) =    -9.56997 eV ==== 
     psi = 0.038*[#   4]+0.038*[#   8]+0.038*[#  12]+0.038*[#  16]+0.026*[#  18]
          +0.026*[#  22]+0.026*[#  26]+0.026*[#  30]+0.024*[#  19]+0.024*[#  23]
          +0.024*[#  27]+0.024*[#  31]+0.022*[#   3]+0.022*[#   7]+0.022*[#  11]
          +0.022*[#  15]+0.015*[#   2]+0.015*[#   6]+0.015*[#  10]+0.015*[#  14]
          +0.013*[#  17]+0.013*[#  21]+0.013*[#  25]+0.013*[#  29]+0.002*[#  20]
          +0.002*[#  24]+0.002*[#  28]+0.002*[#  32]
    |psi|^2 = 0.559
==== e(  12) =    -9.56997 eV ==== 
     psi = 0.056*[#   2]+0.056*[#   6]+0.056*[#  10]+0.056*[#  14]+0.038*[#   4]
          +0.038*[#   8]+0.038*[#  12]+0.038*[#  16]+0.037*[#  18]+0.037*[#  22]
          +0.037*[#  26]+0.037*[#  30]+0.024*[#  19]+0.024*[#  23]+0.024*[#  27]
          +0.024*[#  31]+0.022*[#   3]+0.022*[#   7]+0.022*[#  11]+0.022*[#  15]
          +0.013*[#  17]+0.013*[#  21]+0.013*[#  25]+0.013*[#  29]+0.002*[#  20]
          +0.002*[#  24]+0.002*[#  28]+0.002*[#  32]
    |psi|^2 = 0.766
==== e(  13) =    -8.91380 eV ==== 
     psi = 0.088*[#  20]+0.088*[#  24]+0.088*[#  28]+0.088*[#  32]+0.073*[#  18]
          +0.073*[#  22]+0.073*[#  26]+0.073*[#  30]+0.069*[#   2]+0.069*[#   6]
          +0.069*[#  10]+0.069*[#  14]+0.010*[#  17]+0.010*[#  21]+0.010*[#  25]
          +0.010*[#  29]+0.006*[#   3]+0.006*[#   7]+0.006*[#  11]+0.006*[#  15]
          +0.002*[#   4]+0.002*[#   8]+0.002*[#  12]+0.002*[#  16]+0.002*[#  19]
          +0.002*[#  23]+0.002*[#  27]+0.002*[#  31]
    |psi|^2 = 0.996
==== e(  14) =    -8.91380 eV ==== 
     psi = 0.088*[#  20]+0.088*[#  24]+0.088*[#  28]+0.088*[#  32]+0.010*[#  17]
          +0.010*[#  21]+0.010*[#  25]+0.010*[#  29]+0.006*[#   2]+0.006*[#   3]
          +0.006*[#   6]+0.006*[#   7]+0.006*[#  10]+0.006*[#  11]+0.006*[#  14]
          +0.006*[#  15]+0.002*[#   4]+0.002*[#   8]+0.002*[#  12]+0.002*[#  16]
          +0.002*[#  18]+0.002*[#  19]+0.002*[#  22]+0.002*[#  23]+0.002*[#  26]
          +0.002*[#  27]+0.002*[#  30]+0.002*[#  31]
    |psi|^2 = 0.460
==== e(  15) =    -7.08508 eV ==== 
     psi = 0.179*[#  19]+0.179*[#  23]+0.179*[#  27]+0.179*[#  31]+0.073*[#  18]
          +0.073*[#  22]+0.073*[#  26]+0.073*[#  30]+0.069*[#   2]+0.069*[#   6]
          +0.069*[#  10]+0.069*[#  14]+0.031*[#  20]+0.031*[#  24]+0.031*[#  28]
          +0.031*[#  32]+0.011*[#   4]+0.011*[#   8]+0.011*[#  12]+0.011*[#  16]
          +0.008*[#   1]+0.008*[#   5]+0.008*[#   9]+0.008*[#  13]+0.002*[#  17]
          +0.002*[#  21]+0.002*[#  25]+0.002*[#  29]
    |psi|^2 = 1.488
==== e(  16) =    -7.08508 eV ==== 
     psi = 0.179*[#  19]+0.179*[#  23]+0.179*[#  27]+0.179*[#  31]+0.031*[#  20]
          +0.031*[#  24]+0.031*[#  28]+0.031*[#  32]+0.011*[#   4]+0.011*[#   8]
          +0.011*[#  12]+0.011*[#  16]+0.008*[#   1]+0.008*[#   5]+0.008*[#   9]
          +0.008*[#  13]+0.006*[#   2]+0.006*[#   6]+0.006*[#  10]+0.006*[#  14]
          +0.002*[#  17]+0.002*[#  18]+0.002*[#  21]+0.002*[#  22]+0.002*[#  25]
          +0.002*[#  26]+0.002*[#  29]+0.002*[#  30]
    |psi|^2 = 0.952
==== e(  17) =    -6.31043 eV ==== 
     psi = 0.163*[#  19]+0.163*[#  23]+0.163*[#  27]+0.163*[#  31]+0.034*[#  18]
          +0.034*[#  22]+0.034*[#  26]+0.034*[#  30]+0.030*[#  20]+0.030*[#  24]
          +0.030*[#  28]+0.030*[#  32]+0.010*[#   4]+0.010*[#   8]+0.010*[#  12]
          +0.010*[#  16]+0.005*[#   1]+0.005*[#   5]+0.005*[#   9]+0.005*[#  13]
          +0.003*[#   3]+0.003*[#   7]+0.003*[#  11]+0.003*[#  15]+0.002*[#   2]
          +0.002*[#   6]+0.002*[#  10]+0.002*[#  14]+0.001*[#  17]+0.001*[#  21]
          +0.001*[#  25]+0.001*[#  29]
    |psi|^2 = 0.995
==== e(  18) =    -6.31043 eV ==== 
     psi = 0.163*[#  18]+0.163*[#  19]+0.163*[#  22]+0.163*[#  23]+0.163*[#  26]
          +0.163*[#  27]+0.163*[#  30]+0.163*[#  31]+0.030*[#  20]+0.030*[#  24]
          +0.030*[#  28]+0.030*[#  32]+0.010*[#   4]+0.010*[#   8]+0.010*[#  12]
          +0.010*[#  16]+0.005*[#   1]+0.005*[#   5]+0.005*[#   9]+0.005*[#  13]
          +0.003*[#   2]+0.003*[#   3]+0.003*[#   6]+0.003*[#   7]+0.003*[#  10]
          +0.003*[#  11]+0.003*[#  14]+0.003*[#  15]+0.001*[#  17]+0.001*[#  21]
          +0.001*[#  25]+0.001*[#  29]
    |psi|^2 = 1.510
==== e(  19) =    -5.85064 eV ==== 
     psi = 0.180*[#  20]+0.180*[#  24]+0.180*[#  28]+0.180*[#  32]+0.034*[#  18]
          +0.034*[#  22]+0.034*[#  26]+0.034*[#  30]+0.021*[#  19]+0.021*[#  23]
          +0.021*[#  27]+0.021*[#  31]+0.013*[#   1]+0.013*[#   5]+0.013*[#   9]
          +0.013*[#  13]+0.012*[#   3]+0.012*[#   7]+0.012*[#  11]+0.012*[#  15]
          +0.003*[#   4]+0.003*[#   8]+0.003*[#  12]+0.003*[#  16]+0.002*[#   2]
          +0.002*[#   6]+0.002*[#  10]+0.002*[#  14]
    |psi|^2 = 1.064
==== e(  20) =    -5.85064 eV ==== 
     psi = 0.180*[#  20]+0.180*[#  24]+0.180*[#  28]+0.180*[#  32]+0.163*[#  18]
          +0.163*[#  22]+0.163*[#  26]+0.163*[#  30]+0.021*[#  19]+0.021*[#  23]
          +0.021*[#  27]+0.021*[#  31]+0.013*[#   1]+0.013*[#   5]+0.013*[#   9]
          +0.013*[#  13]+0.012*[#   3]+0.012*[#   7]+0.012*[#  11]+0.012*[#  15]
          +0.003*[#   2]+0.003*[#   6]+0.003*[#  10]+0.003*[#  14]+0.003*[#   4]
          +0.003*[#   8]+0.003*[#  12]+0.003*[#  16]
    |psi|^2 = 1.579
==== e(  21) =    -4.93933 eV ==== 
     psi = 0.098*[#  20]+0.098*[#  24]+0.098*[#  28]+0.098*[#  32]+0.051*[#  18]
          +0.051*[#  22]+0.051*[#  26]+0.051*[#  30]+0.042*[#  19]+0.042*[#  23]
          +0.042*[#  27]+0.042*[#  31]+0.028*[#   4]+0.028*[#   8]+0.028*[#  12]
          +0.028*[#  16]+0.015*[#   3]+0.015*[#   7]+0.015*[#  11]+0.015*[#  15]
          +0.008*[#   2]+0.008*[#   6]+0.008*[#  10]+0.008*[#  14]+0.006*[#   1]
          +0.006*[#   5]+0.006*[#   9]+0.006*[#  13]
    |psi|^2 = 0.988
==== e(  22) =    -4.93933 eV ==== 
     psi = 0.098*[#  20]+0.098*[#  24]+0.098*[#  28]+0.098*[#  32]+0.042*[#  18]
          +0.042*[#  19]+0.042*[#  22]+0.042*[#  23]+0.042*[#  26]+0.042*[#  27]
          +0.042*[#  30]+0.042*[#  31]+0.028*[#   4]+0.028*[#   8]+0.028*[#  12]
          +0.028*[#  16]+0.015*[#   2]+0.015*[#   3]+0.015*[#   6]+0.015*[#   7]
          +0.015*[#  10]+0.015*[#  11]+0.015*[#  14]+0.015*[#  15]+0.006*[#   1]
          +0.006*[#   5]+0.006*[#   9]+0.006*[#  13]
    |psi|^2 = 0.977
==== e(  23) =     3.78425 eV ==== 
     psi = 0.051*[#  18]+0.051*[#  22]+0.051*[#  26]+0.051*[#  30]+0.024*[#   3]
          +0.024*[#   7]+0.024*[#  11]+0.024*[#  15]+0.014*[#  19]+0.014*[#  23]
          +0.014*[#  27]+0.014*[#  31]+0.010*[#  17]+0.010*[#  21]+0.010*[#  25]
          +0.010*[#  29]+0.008*[#   2]+0.008*[#   6]+0.008*[#  10]+0.008*[#  14]
          +0.005*[#  20]+0.005*[#  24]+0.005*[#  28]+0.005*[#  32]+0.004*[#   1]
          +0.004*[#   5]+0.004*[#   9]+0.004*[#  13]+0.004*[#   4]+0.004*[#   8]
          +0.004*[#  12]+0.004*[#  16]
    |psi|^2 = 0.478
==== e(  24) =     3.78425 eV ==== 
     psi = 0.042*[#  18]+0.042*[#  22]+0.042*[#  26]+0.042*[#  30]+0.024*[#   3]
          +0.024*[#   7]+0.024*[#  11]+0.024*[#  15]+0.015*[#   2]+0.015*[#   6]
          +0.015*[#  10]+0.015*[#  14]+0.014*[#  19]+0.014*[#  23]+0.014*[#  27]
          +0.014*[#  31]+0.010*[#  17]+0.010*[#  21]+0.010*[#  25]+0.010*[#  29]
          +0.005*[#  20]+0.005*[#  24]+0.005*[#  28]+0.005*[#  32]+0.004*[#   1]
          +0.004*[#   5]+0.004*[#   9]+0.004*[#  13]+0.004*[#   4]+0.004*[#   8]
          +0.004*[#  12]+0.004*[#  16]
    |psi|^2 = 0.466
==== e(  25) =     5.27174 eV ==== 
     psi = 0.073*[#   1]+0.073*[#   5]+0.073*[#   9]+0.073*[#  13]+0.064*[#   2]
          +0.064*[#   6]+0.064*[#  10]+0.064*[#  14]+0.030*[#   3]+0.030*[#   7]
          +0.030*[#  11]+0.030*[#  15]+0.022*[#  20]+0.022*[#  24]+0.022*[#  28]
          +0.022*[#  32]+0.020*[#  18]+0.020*[#  22]+0.020*[#  26]+0.020*[#  30]
          +0.006*[#  17]+0.006*[#  21]+0.006*[#  25]+0.006*[#  29]+0.004*[#   4]
          +0.004*[#   8]+0.004*[#  12]+0.004*[#  16]
    |psi|^2 = 0.879
==== e(  26) =     5.27174 eV ==== 
     psi = 0.073*[#   1]+0.073*[#   5]+0.073*[#   9]+0.073*[#  13]+0.064*[#   2]
          +0.064*[#   6]+0.064*[#  10]+0.064*[#  14]+0.030*[#   3]+0.030*[#   7]
          +0.030*[#  11]+0.030*[#  15]+0.022*[#  20]+0.022*[#  24]+0.022*[#  28]
          +0.022*[#  32]+0.020*[#  18]+0.020*[#  22]+0.020*[#  26]+0.020*[#  30]
          +0.006*[#  17]+0.006*[#  21]+0.006*[#  25]+0.006*[#  29]+0.004*[#   4]
          +0.004*[#   8]+0.004*[#  12]+0.004*[#  16]
    |psi|^2 = 0.879

Lowdin Charges: 

     Atom #   1: total charge =   3.9443, s =  0.9733, 
     Atom #   1: total charge =   3.9443, p =  2.9711, pz=  0.9742, px=  1.0314, py=  0.9654, 
     Atom #   2: total charge =   3.9443, s =  0.9733, 
     Atom #   2: total charge =   3.9443, p =  2.9711, pz=  0.9742, px=  1.0314, py=  0.9654, 
     Atom #   3: total charge =   3.9443, s =  0.9733, 
     Atom #   3: total charge =   3.9443, p =  2.9711, pz=  0.9742, px=  1.0314, py=  0.9654, 
     Atom #   4: total charge =   3.9443, s =  0.9733, 
     Atom #   4: total charge =   3.9443, p =  2.9711, pz=  0.9742, px=  1.0314, py=  0.9654, 
     Atom #   5: total charge =   7.4168, s =  1.8490, 
     Atom #   5: total charge =   7.4168, p =  5.5678, pz=  1.7726, px=  1.9348, py=  1.8604, 
     Atom #   6: total charge =   7.4168, s =  1.8490, 
     Atom #   6: total charge =   7.4168, p =  5.5678, pz=  1.7726, px=  1.9348, py=  1.8604, 
     Atom #   7: total charge =   7.4168, s =  1.8490, 
     Atom #   7: total charge =   7.4168, p =  5.5678, pz=  1.7726, px=  1.9348, py=  1.8604, 
     Atom #   8: total charge =   7.4168, s =  1.8490, 
     Atom #   8: total charge =   7.4168, p =  5.5678, pz=  1.7726, px=  1.9348, py=  1.8604, 
     Spilling Parameter:  -0.0328

     PROJWFC      :   2m 0.63s CPU     43.88s WALL


   This run was terminated on:  19:30:15  19Jan2024            

=------------------------------------------------------------------------------=
   JOB DONE.
=------------------------------------------------------------------------------=
