
     Program PWSCF v.7.1 starts on 19Jan2024 at 14:54:32 

     This program is part of the open-source Quantum ESPRESSO suite
     for quantum simulation of materials; please cite
         "P. Giannozzi et al., J. Phys.:Condens. Matter 21 395502 (2009);
         "P. Giannozzi et al., J. Phys.:Condens. Matter 29 465901 (2017);
         "P. Giannozzi et al., J. Chem. Phys. 152 154105 (2020);
          URL http://www.quantum-espresso.org", 
     in publications or presentations arising from this work. More details at
     http://www.quantum-espresso.org/quote

     Parallel version (MPI), running on    75 processors

     MPI processes distributed on     1 nodes
     351479 MiB available memory on the printing compute node when the environment starts

     Reading input from scf.in

     Current dimensions of program PWSCF are:
     Max number of different atomic species (ntypx) = 10
     Max number of k-points (npk) =  40000
     Max angular momentum in pseudopotentials (lmaxx) =  4
     Message from routine setup:
     using ibrav=0 with symmetry is DISCOURAGED, use correct ibrav instead

     R & G space division:  proc/nbgrp/npool/nimage =      75
     Subspace diagonalization in iterative solution of the eigenvalue problem:
     a serial algorithm will be used


     Parallelization info
     --------------------
     sticks:   dense  smooth     PW     G-vecs:    dense   smooth      PW
     Min          91      91     24                25169    25169    3406
     Max          92      92     25                25204    25204    3421
     Sum        6889    6889   1815              1889203  1889203  255925

     Using Slab Decomposition



     bravais-lattice index     =            0
     lattice parameter (alat)  =       4.9702  a.u.
     unit-cell volume          =    1084.4437 (a.u.)^3
     number of atoms/cell      =            8
     number of atomic types    =            2
     number of electrons       =        44.00
     number of Kohn-Sham states=           26
     kinetic-energy cutoff     =     550.0000  Ry
     charge density cutoff     =    2200.0000  Ry
     scf convergence threshold =      1.0E-08
     mixing beta               =       0.7000
     number of iterations used =            8  plain     mixing
     Exchange-correlation=  SLA  PW   PBX  PBC
                           (   1   4   3   4   0   0   0)

     celldm(1)=   4.970237  celldm(2)=   0.000000  celldm(3)=   0.000000
     celldm(4)=   0.000000  celldm(5)=   0.000000  celldm(6)=   0.000000

     crystal axes: (cart. coord. in units of alat)
               a(1) = (   1.000000   0.000000   0.000000 )  
               a(2) = (   0.000000   1.594189   0.000000 )  
               a(3) = (   0.000000   0.000000   5.540333 )  

     reciprocal axes: (cart. coord. in units 2 pi/alat)
               b(1) = (  1.000000  0.000000  0.000000 )  
               b(2) = (  0.000000  0.627278  0.000000 )  
               b(3) = (  0.000000  0.000000  0.180495 )  


     PseudoPot. # 1 for C  read from file:
     ../pseudo/c_pbe_v1.2.uspp.F.UPF
     MD5 check sum: d1aef80898a10debaa0f26306b886e00
     Pseudo is Ultrasoft + core correction, Zval =  4.0
     Generated by new atomic code, or converted to UPF format
     Using radial grid of  721 points,  4 beta functions with: 
                l(1) =   0
                l(2) =   0
                l(3) =   1
                l(4) =   1
     Q(r) pseudized with  8 coefficients,  rinner =    1.100   1.100   1.100


     PseudoPot. # 2 for F  read from file:
     ../pseudo/f_pbe_v1.4.uspp.F.UPF
     MD5 check sum: 4c38b6a325caf53ec0e86aed9459de46
     Pseudo is Ultrasoft, Zval =  7.0
     Generated by new atomic code, or converted to UPF format
     Using radial grid of  799 points,  4 beta functions with: 
                l(1) =   0
                l(2) =   0
                l(3) =   1
                l(4) =   1
     Q(r) pseudized with  8 coefficients,  rinner =    0.950   0.950   0.950


     atomic species   valence    mass     pseudopotential
        C              4.00    12.01070     C ( 1.00)
        F              7.00    18.99840     F ( 1.00)

      8 Sym. Ops., with inversion, found ( 4 have fractional translation)


                                    s                        frac. trans.

      isym =  1     identity                                     

 cryst.   s( 1) = (     1          0          0      )
                  (     0          1          0      )
                  (     0          0          1      )

 cart.    s( 1) = (  1.0000000  0.0000000  0.0000000 )
                  (  0.0000000  1.0000000  0.0000000 )
                  (  0.0000000  0.0000000  1.0000000 )


      isym =  2     180 deg rotation - cart. axis [0,0,1]        

 cryst.   s( 2) = (    -1          0          0      )    f =(  0.5000000 )
                  (     0         -1          0      )       (  0.5000000 )
                  (     0          0          1      )       (  0.0000000 )

 cart.    s( 2) = ( -1.0000000  0.0000000  0.0000000 )    f =(  0.5000000 )
                  (  0.0000000 -1.0000000  0.0000000 )       (  0.7970945 )
                  (  0.0000000  0.0000000  1.0000000 )       (  0.0000000 )


      isym =  3     180 deg rotation - cart. axis [0,1,0]        

 cryst.   s( 3) = (    -1          0          0      )    f =(  0.5000000 )
                  (     0          1          0      )       ( -0.5000000 )
                  (     0          0         -1      )       (  0.0000000 )

 cart.    s( 3) = ( -1.0000000  0.0000000  0.0000000 )    f =(  0.5000000 )
                  (  0.0000000  1.0000000  0.0000000 )       ( -0.7970945 )
                  (  0.0000000  0.0000000 -1.0000000 )       (  0.0000000 )


      isym =  4     180 deg rotation - cart. axis [1,0,0]        

 cryst.   s( 4) = (     1          0          0      )
                  (     0         -1          0      )
                  (     0          0         -1      )

 cart.    s( 4) = (  1.0000000  0.0000000  0.0000000 )
                  (  0.0000000 -1.0000000  0.0000000 )
                  (  0.0000000  0.0000000 -1.0000000 )


      isym =  5     inversion                                    

 cryst.   s( 5) = (    -1          0          0      )
                  (     0         -1          0      )
                  (     0          0         -1      )

 cart.    s( 5) = ( -1.0000000  0.0000000  0.0000000 )
                  (  0.0000000 -1.0000000  0.0000000 )
                  (  0.0000000  0.0000000 -1.0000000 )


      isym =  6     inv. 180 deg rotation - cart. axis [0,0,1]   

 cryst.   s( 6) = (     1          0          0      )    f =(  0.5000000 )
                  (     0          1          0      )       ( -0.5000000 )
                  (     0          0         -1      )       (  0.0000000 )

 cart.    s( 6) = (  1.0000000  0.0000000  0.0000000 )    f =(  0.5000000 )
                  (  0.0000000  1.0000000  0.0000000 )       ( -0.7970945 )
                  (  0.0000000  0.0000000 -1.0000000 )       (  0.0000000 )


      isym =  7     inv. 180 deg rotation - cart. axis [0,1,0]   

 cryst.   s( 7) = (     1          0          0      )    f =(  0.5000000 )
                  (     0         -1          0      )       (  0.5000000 )
                  (     0          0          1      )       (  0.0000000 )

 cart.    s( 7) = (  1.0000000  0.0000000  0.0000000 )    f =(  0.5000000 )
                  (  0.0000000 -1.0000000  0.0000000 )       (  0.7970945 )
                  (  0.0000000  0.0000000  1.0000000 )       (  0.0000000 )


      isym =  8     inv. 180 deg rotation - cart. axis [1,0,0]   

 cryst.   s( 8) = (    -1          0          0      )
                  (     0          1          0      )
                  (     0          0          1      )

 cart.    s( 8) = ( -1.0000000  0.0000000  0.0000000 )
                  (  0.0000000  1.0000000  0.0000000 )
                  (  0.0000000  0.0000000  1.0000000 )


   Cartesian axes

     site n.     atom                  positions (alat units)
         1           C   tau(   1) = (   0.5000000   0.2256478   0.1937169  )
         2           C   tau(   2) = (   0.0000000   1.0227422  -0.1937169  )
         3           C   tau(   3) = (   0.0000000   0.5714467   0.1937169  )
         4           C   tau(   4) = (   0.5000000   1.3685411  -0.1937169  )
         5           F   tau(   5) = (   0.5000000  -0.0095812  -0.6719762  )
         6           F   tau(   6) = (   0.0000000   0.7875132   0.6719762  )
         7           F   tau(   7) = (   0.0000000   0.8066757  -0.6719762  )
         8           F   tau(   8) = (   0.5000000   0.0095812   0.6719762  )

   Crystallographic axes

     site n.     atom                  positions (cryst. coord.)
         1           C   tau(   1) = (  0.5000000  0.1415439  0.0349649  )
         2           C   tau(   2) = (  0.0000000  0.6415439 -0.0349649  )
         3           C   tau(   3) = (  0.0000000  0.3584561  0.0349649  )
         4           C   tau(   4) = (  0.5000000  0.8584561 -0.0349649  )
         5           F   tau(   5) = (  0.5000000 -0.0060101 -0.1212881  )
         6           F   tau(   6) = (  0.0000000  0.4939899  0.1212881  )
         7           F   tau(   7) = (  0.0000000  0.5060101 -0.1212881  )
         8           F   tau(   8) = (  0.5000000  0.0060101  0.1212881  )

     number of k points=    16  Marzari-Vanderbilt smearing, width (Ry)=  0.0200
                       cart. coord. in units 2pi/alat
        k(    1) = (   0.0000000   0.0000000   0.0000000), wk =   0.0408163
        k(    2) = (   0.0000000   0.0896112   0.0000000), wk =   0.0816327
        k(    3) = (   0.0000000   0.1792224   0.0000000), wk =   0.0816327
        k(    4) = (   0.0000000   0.2688335   0.0000000), wk =   0.0816327
        k(    5) = (   0.1428571   0.0000000   0.0000000), wk =   0.0816327
        k(    6) = (   0.1428571   0.0896112   0.0000000), wk =   0.1632653
        k(    7) = (   0.1428571   0.1792224   0.0000000), wk =   0.1632653
        k(    8) = (   0.1428571   0.2688335   0.0000000), wk =   0.1632653
        k(    9) = (   0.2857143   0.0000000   0.0000000), wk =   0.0816327
        k(   10) = (   0.2857143   0.0896112   0.0000000), wk =   0.1632653
        k(   11) = (   0.2857143   0.1792224   0.0000000), wk =   0.1632653
        k(   12) = (   0.2857143   0.2688335   0.0000000), wk =   0.1632653
        k(   13) = (   0.4285714   0.0000000   0.0000000), wk =   0.0816327
        k(   14) = (   0.4285714   0.0896112   0.0000000), wk =   0.1632653
        k(   15) = (   0.4285714   0.1792224   0.0000000), wk =   0.1632653
        k(   16) = (   0.4285714   0.2688335   0.0000000), wk =   0.1632653

                       cryst. coord.
        k(    1) = (   0.0000000   0.0000000   0.0000000), wk =   0.0408163
        k(    2) = (   0.0000000   0.1428571   0.0000000), wk =   0.0816327
        k(    3) = (   0.0000000   0.2857143   0.0000000), wk =   0.0816327
        k(    4) = (   0.0000000   0.4285714   0.0000000), wk =   0.0816327
        k(    5) = (   0.1428571   0.0000000   0.0000000), wk =   0.0816327
        k(    6) = (   0.1428571   0.1428571   0.0000000), wk =   0.1632653
        k(    7) = (   0.1428571   0.2857143   0.0000000), wk =   0.1632653
        k(    8) = (   0.1428571   0.4285714   0.0000000), wk =   0.1632653
        k(    9) = (   0.2857143   0.0000000   0.0000000), wk =   0.0816327
        k(   10) = (   0.2857143   0.1428571   0.0000000), wk =   0.1632653
        k(   11) = (   0.2857143   0.2857143   0.0000000), wk =   0.1632653
        k(   12) = (   0.2857143   0.4285714   0.0000000), wk =   0.1632653
        k(   13) = (   0.4285714   0.0000000   0.0000000), wk =   0.0816327
        k(   14) = (   0.4285714   0.1428571   0.0000000), wk =   0.1632653
        k(   15) = (   0.4285714   0.2857143   0.0000000), wk =   0.1632653
        k(   16) = (   0.4285714   0.4285714   0.0000000), wk =   0.1632653

     Dense  grid:  1889203 G-vectors     FFT dimensions: (  80, 120, 432)

     Dynamical RAM for                 wfc:       1.25 MB

     Dynamical RAM for     wfc (w. buffer):      21.24 MB

     Dynamical RAM for           str. fact:       0.77 MB

     Dynamical RAM for           local pot:       0.00 MB

     Dynamical RAM for          nlocal pot:       3.08 MB

     Dynamical RAM for                qrad:       2.15 MB

     Dynamical RAM for          rho,v,vnew:       2.47 MB

     Dynamical RAM for               rhoin:       0.82 MB

     Dynamical RAM for            rho*nmix:       6.15 MB

     Dynamical RAM for           G-vectors:       1.63 MB

     Dynamical RAM for          h,s,v(r/c):       0.12 MB

     Dynamical RAM for          <psi|beta>:       0.03 MB

     Dynamical RAM for                 psi:       2.50 MB

     Dynamical RAM for                hpsi:       2.50 MB

     Dynamical RAM for                spsi:       2.50 MB

     Dynamical RAM for      wfcinit/wfcrot:       3.10 MB

     Dynamical RAM for           addusdens:      18.07 MB

     Dynamical RAM for          addusforce:      20.57 MB

     Dynamical RAM for         addusstress:      19.22 MB

     Estimated static dynamical RAM per process >      35.51 MB

     Estimated max dynamical RAM per process >      62.23 MB

     Estimated total dynamical RAM >       4.56 GB

     Initial potential from superposition of free atoms

     starting charge      43.9998, renormalised to      44.0000

     negative rho (up, down):  3.271E-03 0.000E+00
     Starting wfcs are   32 randomized atomic wfcs

     total cpu time spent up to now is       37.9 secs

     Self-consistent Calculation

     iteration #  1     ecut=   550.00 Ry     beta= 0.70
     Davidson diagonalization with overlap

---- Real-time Memory Report at c_bands before calling an iterative solver
           106 MiB given to the printing process from OS
             0 MiB allocation reported by mallinfo(arena+hblkhd)
        347984 MiB available memory on the node where the printing process lives
------------------
     ethr =  1.00E-02,  avg # of iterations =  3.2

     Threshold (ethr) on eigenvalues was too large:
     Diagonalizing with lowered threshold

     Davidson diagonalization with overlap

---- Real-time Memory Report at c_bands before calling an iterative solver
           124 MiB given to the printing process from OS
             0 MiB allocation reported by mallinfo(arena+hblkhd)
        346573 MiB available memory on the node where the printing process lives
------------------
     ethr =  9.86E-04,  avg # of iterations =  1.0

     negative rho (up, down):  9.033E-04 0.000E+00

     total cpu time spent up to now is      296.1 secs

     total energy              =    -240.14104387 Ry
     estimated scf accuracy    <       0.42235770 Ry

     iteration #  2     ecut=   550.00 Ry     beta= 0.70
     Davidson diagonalization with overlap

---- Real-time Memory Report at c_bands before calling an iterative solver
           127 MiB given to the printing process from OS
             0 MiB allocation reported by mallinfo(arena+hblkhd)
        345140 MiB available memory on the node where the printing process lives
------------------
     ethr =  9.60E-04,  avg # of iterations =  3.1

     negative rho (up, down):  5.276E-04 0.000E+00

     total cpu time spent up to now is      463.7 secs

     total energy              =    -240.15831987 Ry
     estimated scf accuracy    <       0.31367949 Ry

     iteration #  3     ecut=   550.00 Ry     beta= 0.70
     Davidson diagonalization with overlap

---- Real-time Memory Report at c_bands before calling an iterative solver
           128 MiB given to the printing process from OS
             0 MiB allocation reported by mallinfo(arena+hblkhd)
        345207 MiB available memory on the node where the printing process lives
------------------
     ethr =  7.13E-04,  avg # of iterations =  2.6

     negative rho (up, down):  1.065E-04 0.000E+00

     total cpu time spent up to now is      611.3 secs

     total energy              =    -240.24323731 Ry
     estimated scf accuracy    <       0.02904932 Ry

     iteration #  4     ecut=   550.00 Ry     beta= 0.70
     Davidson diagonalization with overlap

---- Real-time Memory Report at c_bands before calling an iterative solver
           128 MiB given to the printing process from OS
             0 MiB allocation reported by mallinfo(arena+hblkhd)
        345164 MiB available memory on the node where the printing process lives
------------------
     ethr =  6.60E-05,  avg # of iterations =  2.8

     negative rho (up, down):  1.699E-05 0.000E+00

     total cpu time spent up to now is      766.8 secs

     total energy              =    -240.24703533 Ry
     estimated scf accuracy    <       0.00092840 Ry

     iteration #  5     ecut=   550.00 Ry     beta= 0.70
     Davidson diagonalization with overlap

---- Real-time Memory Report at c_bands before calling an iterative solver
           129 MiB given to the printing process from OS
             0 MiB allocation reported by mallinfo(arena+hblkhd)
        345102 MiB available memory on the node where the printing process lives
------------------
     ethr =  2.11E-06,  avg # of iterations =  6.9

     negative rho (up, down):  2.288E-06 0.000E+00

     total cpu time spent up to now is     1059.0 secs

     total energy              =    -240.24732188 Ry
     estimated scf accuracy    <       0.00003037 Ry

     iteration #  6     ecut=   550.00 Ry     beta= 0.70
     Davidson diagonalization with overlap

---- Real-time Memory Report at c_bands before calling an iterative solver
           130 MiB given to the printing process from OS
             0 MiB allocation reported by mallinfo(arena+hblkhd)
        344763 MiB available memory on the node where the printing process lives
------------------
     ethr =  6.90E-08,  avg # of iterations =  2.6

     negative rho (up, down):  2.271E-06 0.000E+00

     total cpu time spent up to now is     1202.2 secs

     total energy              =    -240.24732494 Ry
     estimated scf accuracy    <       0.00000390 Ry

     iteration #  7     ecut=   550.00 Ry     beta= 0.70
     Davidson diagonalization with overlap

---- Real-time Memory Report at c_bands before calling an iterative solver
           131 MiB given to the printing process from OS
             0 MiB allocation reported by mallinfo(arena+hblkhd)
        344708 MiB available memory on the node where the printing process lives
------------------
     ethr =  8.85E-09,  avg # of iterations =  2.9

     negative rho (up, down):  2.270E-06 0.000E+00

     total cpu time spent up to now is     1365.3 secs

     total energy              =    -240.24732625 Ry
     estimated scf accuracy    <       0.00000051 Ry

     iteration #  8     ecut=   550.00 Ry     beta= 0.70
     Davidson diagonalization with overlap

---- Real-time Memory Report at c_bands before calling an iterative solver
           131 MiB given to the printing process from OS
             0 MiB allocation reported by mallinfo(arena+hblkhd)
        344662 MiB available memory on the node where the printing process lives
------------------
     ethr =  1.16E-09,  avg # of iterations =  2.0

     negative rho (up, down):  2.271E-06 0.000E+00

     total cpu time spent up to now is     1488.9 secs

     End of self-consistent calculation

          k = 0.0000 0.0000 0.0000 (236167 PWs)   bands (ev):

   -28.1833 -27.9021 -26.6494 -26.5318 -18.8095 -15.5400 -13.5839 -11.1230
   -10.3488  -9.9808  -8.6993  -8.2805  -7.6841  -7.5567  -7.3228  -5.4480
    -5.3045  -5.2489  -4.5965  -4.2725  -4.0436  -2.7236   0.8197   3.2721
     3.3857   4.4168

     occupation numbers 
     1.0000   1.0000   1.0000   1.0000   1.0000   1.0000   1.0000   1.0000
     1.0000   1.0000   1.0000   1.0000   1.0000   1.0000   1.0000   1.0000
     1.0000   1.0000   1.0000   1.0000   1.0000   1.0000   0.0000   0.0000
     0.0000   0.0000

          k = 0.0000 0.0896 0.0000 (236335 PWs)   bands (ev):

   -28.1343 -27.8669 -26.7073 -26.5869 -18.7092 -15.8870 -13.2958 -11.0695
   -10.1659 -10.0292  -8.6185  -8.3034  -7.8348  -7.4048  -7.3483  -5.5226
    -5.4484  -5.3607  -4.6894  -4.2314  -3.9792  -2.8082   1.0508   3.3145
     3.3752   4.7174

     occupation numbers 
     1.0000   1.0000   1.0000   1.0000   1.0000   1.0000   1.0000   1.0000
     1.0000   1.0000   1.0000   1.0000   1.0000   1.0000   1.0000   1.0000
     1.0000   1.0000   1.0000   1.0000   1.0000   1.0000   0.0000   0.0000
     0.0000   0.0000

          k = 0.0000 0.1792 0.0000 (236299 PWs)   bands (ev):

   -28.0008 -27.7838 -26.8455 -26.7294 -18.4130 -16.5837 -12.7215 -11.1128
    -9.9679  -9.7229  -8.4047  -8.3898  -8.2380  -7.4601  -7.0172  -5.8338
    -5.6653  -5.4973  -4.8453  -4.2945  -3.8076  -3.0216   1.6425   3.2985
     3.4394   4.5430

     occupation numbers 
     1.0000   1.0000   1.0000   1.0000   1.0000   1.0000   1.0000   1.0000
     1.0000   1.0000   1.0000   1.0000   1.0000   1.0000   1.0000   1.0000
     1.0000   1.0000   1.0000   1.0000   1.0000   1.0000   0.0000   0.0000
     0.0000   0.0000

          k = 0.0000 0.2688 0.0000 (236216 PWs)   bands (ev):

   -27.8327 -27.7381 -26.9491 -26.8904 -17.9361 -17.3078 -12.0926 -11.5073
    -9.5598  -9.2878  -8.7359  -8.6412  -8.0583  -7.7111  -6.5627  -6.1957
    -5.7222  -5.6450  -4.8282  -4.5619  -3.5669  -3.2923   2.3825   3.0055
     3.6525   4.0162

     occupation numbers 
     1.0000   1.0000   1.0000   1.0000   1.0000   1.0000   1.0000   1.0000
     1.0000   1.0000   1.0000   1.0000   1.0000   1.0000   1.0000   1.0000
     1.0000   1.0000   1.0000   1.0000   1.0000   1.0000   0.0000   0.0000
     0.0000   0.0000

          k = 0.1429 0.0000 0.0000 (236271 PWs)   bands (ev):

   -28.0460 -27.7812 -26.6478 -26.5335 -18.5557 -15.2937 -13.4901 -10.9215
   -10.2269 -10.0256  -9.7635  -8.4606  -8.0490  -7.6404  -7.4006  -5.9200
    -5.7562  -5.3778  -4.7997  -4.5067  -4.1831  -3.5488   1.2020   3.9566
     4.5824   5.0235

     occupation numbers 
     1.0000   1.0000   1.0000   1.0000   1.0000   1.0000   1.0000   1.0000
     1.0000   1.0000   1.0000   1.0000   1.0000   1.0000   1.0000   1.0000
     1.0000   1.0000   1.0000   1.0000   1.0000   1.0000   0.0000   0.0000
     0.0000   0.0000

          k = 0.1429 0.0896 0.0000 (236313 PWs)   bands (ev):

   -28.0003 -27.7487 -26.6991 -26.5828 -18.4570 -15.6517 -13.1993 -10.9019
   -10.1324 -10.0799  -9.6140  -8.5377  -8.0486  -7.7966  -7.2655  -5.9887
    -5.7862  -5.3574  -4.7842  -4.4899  -4.2340  -3.6560   1.3897   4.2285
     4.5659   5.0376

     occupation numbers 
     1.0000   1.0000   1.0000   1.0000   1.0000   1.0000   1.0000   1.0000
     1.0000   1.0000   1.0000   1.0000   1.0000   1.0000   1.0000   1.0000
     1.0000   1.0000   1.0000   1.0000   1.0000   1.0000   0.0000   0.0000
     0.0000   0.0000

          k = 0.1429 0.1792 0.0000 (236273 PWs)   bands (ev):

   -27.8761 -27.6720 -26.8218 -26.7109 -18.1652 -16.3535 -12.6435 -11.0290
   -10.0533  -9.9398  -9.2139  -8.7396  -8.1583  -8.0691  -6.9212  -6.0239
    -5.8287  -5.5268  -4.8332  -4.4111  -4.3584  -3.8291   1.9054   4.2546
     4.8913   5.0686

     occupation numbers 
     1.0000   1.0000   1.0000   1.0000   1.0000   1.0000   1.0000   1.0000
     1.0000   1.0000   1.0000   1.0000   1.0000   1.0000   1.0000   1.0000
     1.0000   1.0000   1.0000   1.0000   1.0000   1.0000   0.0000   0.0000
     0.0000   0.0000

          k = 0.1429 0.2688 0.0000 (236266 PWs)   bands (ev):

   -27.7198 -27.6310 -26.9127 -26.8571 -17.6949 -17.0735 -12.0437 -11.4666
    -9.8185  -9.7614  -8.9419  -8.9397  -8.3692  -8.1785  -6.4734  -6.0514
    -5.8462  -5.8423  -4.8677  -4.6955  -4.1469  -3.9624   2.6468   3.5033
     5.0481   5.0808

     occupation numbers 
     1.0000   1.0000   1.0000   1.0000   1.0000   1.0000   1.0000   1.0000
     1.0000   1.0000   1.0000   1.0000   1.0000   1.0000   1.0000   1.0000
     1.0000   1.0000   1.0000   1.0000   1.0000   1.0000   0.0000   0.0000
     0.0000   0.0000

          k = 0.2857 0.0000 0.0000 (236201 PWs)   bands (ev):

   -27.6836 -27.4628 -26.6892 -26.5777 -17.8038 -14.5748 -13.6136 -11.3188
   -10.5498 -10.4105  -9.9337  -9.1821  -9.1317  -7.9189  -7.0443  -6.5109
    -6.3474  -5.9882  -5.6238  -4.7703  -4.7030  -4.4336   2.0554   3.8819
     5.8539   6.8521

     occupation numbers 
     1.0000   1.0000   1.0000   1.0000   1.0000   1.0000   1.0000   1.0000
     1.0000   1.0000   1.0000   1.0000   1.0000   1.0000   1.0000   1.0000
     1.0000   1.0000   1.0000   1.0000   1.0000   1.0000   0.0000   0.0000
     0.0000   0.0000

          k = 0.2857 0.0896 0.0000 (236173 PWs)   bands (ev):

   -27.6485 -27.4388 -26.7221 -26.6109 -17.7101 -14.9765 -13.3560 -11.2124
   -10.8142 -10.4108  -9.7804  -9.3704  -8.8426  -8.0902  -6.9828  -6.4800
    -6.3420  -5.8018  -5.4907  -4.9401  -4.7405  -4.4128   2.1757   4.0934
     5.7174   6.5616

     occupation numbers 
     1.0000   1.0000   1.0000   1.0000   1.0000   1.0000   1.0000   1.0000
     1.0000   1.0000   1.0000   1.0000   1.0000   1.0000   1.0000   1.0000
     1.0000   1.0000   1.0000   1.0000   1.0000   1.0000   0.0000   0.0000
     0.0000   0.0000

          k = 0.2857 0.1792 0.0000 (236240 PWs)   bands (ev):

   -27.5534 -27.3837 -26.8003 -26.6988 -17.4326 -15.6847 -12.9522 -11.3562
   -10.9841 -10.4777  -9.4781  -9.4639  -8.5571  -8.3581  -6.8189  -6.3812
    -6.2745  -5.5477  -5.3116  -5.2639  -4.6694  -4.4956   2.5491   4.5214
     5.2558   6.4751

     occupation numbers 
     1.0000   1.0000   1.0000   1.0000   1.0000   1.0000   1.0000   1.0000
     1.0000   1.0000   1.0000   1.0000   1.0000   1.0000   1.0000   1.0000
     1.0000   1.0000   1.0000   1.0000   1.0000   1.0000   0.0000   0.0000
     0.0000   0.0000

          k = 0.2857 0.2688 0.0000 (236220 PWs)   bands (ev):

   -27.4333 -27.3598 -26.8524 -26.8033 -16.9835 -16.3860 -12.4961 -11.9551
   -10.7535 -10.5822  -9.4711  -9.4003  -8.4005  -8.3976  -6.5484  -6.2993
    -6.1790  -5.8518  -5.2600  -5.1942  -4.5860  -4.5550   3.1878   4.0271
     5.4394   5.8618

     occupation numbers 
     1.0000   1.0000   1.0000   1.0000   1.0000   1.0000   1.0000   1.0000
     1.0000   1.0000   1.0000   1.0000   1.0000   1.0000   1.0000   1.0000
     1.0000   1.0000   1.0000   1.0000   1.0000   1.0000   0.0000   0.0000
     0.0000   0.0000

          k = 0.4286 0.0000 0.0000 (236199 PWs)   bands (ev):

   -27.2347 -27.0684 -26.8715 -26.7459 -16.5824 -14.9843 -13.4426 -11.9973
   -11.3116 -10.5185  -9.6581  -9.4976  -9.2780  -8.5331  -7.1627  -6.8288
    -6.3694  -6.1942  -6.1860  -5.4927  -4.9364  -4.8459   3.1363   4.5195
     4.6242   6.0723

     occupation numbers 
     1.0000   1.0000   1.0000   1.0000   1.0000   1.0000   1.0000   1.0000
     1.0000   1.0000   1.0000   1.0000   1.0000   1.0000   1.0000   1.0000
     1.0000   1.0000   1.0000   1.0000   1.0000   1.0000   0.0000   0.0000
     0.0000   0.0000

          k = 0.4286 0.0896 0.0000 (236153 PWs)   bands (ev):

   -27.2184 -27.0608 -26.8778 -26.7569 -16.4988 -14.9450 -13.7293 -12.3196
   -11.1153 -10.4302  -9.7434  -9.6705  -8.9572  -8.5659  -6.9711  -6.6398
    -6.5551  -6.4186  -5.8308  -5.6011  -4.8523  -4.7386   3.2139   4.5470
     4.6500   5.8052

     occupation numbers 
     1.0000   1.0000   1.0000   1.0000   1.0000   1.0000   1.0000   1.0000
     1.0000   1.0000   1.0000   1.0000   1.0000   1.0000   1.0000   1.0000
     1.0000   1.0000   1.0000   1.0000   1.0000   1.0000   0.0000   0.0000
     0.0000   0.0000

          k = 0.4286 0.1792 0.0000 (236033 PWs)   bands (ev):

   -27.1745 -27.0498 -26.8870 -26.7879 -16.2512 -14.9542 -14.1451 -12.9492
   -10.8253 -10.4280  -9.9110  -9.7776  -8.5713  -8.4683  -6.8340  -6.6171
    -6.5422  -6.1883  -5.6479  -5.5711  -4.7060  -4.6661   3.4683   4.5107
     4.8449   5.4169

     occupation numbers 
     1.0000   1.0000   1.0000   1.0000   1.0000   1.0000   1.0000   1.0000
     1.0000   1.0000   1.0000   1.0000   1.0000   1.0000   1.0000   1.0000
     1.0000   1.0000   1.0000   1.0000   1.0000   1.0000   0.0000   0.0000
     0.0000   0.0000

          k = 0.4286 0.2688 0.0000 (236043 PWs)   bands (ev):

   -27.1167 -27.0668 -26.8724 -26.8316 -15.8535 -15.3512 -14.0325 -13.5661
   -10.6484 -10.5364  -9.9481  -9.9074  -8.3344  -8.3155  -6.9259  -6.8368
    -6.0716  -5.7798  -5.6755  -5.5055  -4.6840  -4.6610   3.8887   4.2911
     5.1298   5.2183

     occupation numbers 
     1.0000   1.0000   1.0000   1.0000   1.0000   1.0000   1.0000   1.0000
     1.0000   1.0000   1.0000   1.0000   1.0000   1.0000   1.0000   1.0000
     1.0000   1.0000   1.0000   1.0000   1.0000   1.0000   0.0000   0.0000
     0.0000   0.0000

     the Fermi energy is    -0.5462 ev

!    total energy              =    -240.24732633 Ry
     estimated scf accuracy    <          7.3E-09 Ry
     smearing contrib. (-TS)   =      -0.00000000 Ry
     internal energy E=F+TS    =    -240.24732633 Ry

     The total energy is F=E-TS. E is the sum of the following terms:
     one-electron contribution =   -1256.48119829 Ry
     hartree contribution      =     642.01066782 Ry
     xc contribution           =     -51.69346857 Ry
     ewald contribution        =     425.91667271 Ry

     convergence has been achieved in   8 iterations

     negative rho (up, down):  2.271E-06 0.000E+00

     Forces acting on atoms (cartesian axes, Ry/au):

     atom    1 type  1   force =     0.00000000    0.00000878   -0.00002294
     atom    2 type  1   force =     0.00000000    0.00000878    0.00002294
     atom    3 type  1   force =     0.00000000   -0.00000878   -0.00002294
     atom    4 type  1   force =     0.00000000   -0.00000878    0.00002294
     atom    5 type  2   force =     0.00000000   -0.00000981   -0.00003421
     atom    6 type  2   force =     0.00000000   -0.00000981    0.00003421
     atom    7 type  2   force =     0.00000000    0.00000981   -0.00003421
     atom    8 type  2   force =     0.00000000    0.00000981    0.00003421
     The non-local contrib.  to forces
     atom    1 type  1   force =    -0.00000000   -0.16202794    0.36785846
     atom    2 type  1   force =     0.00000000   -0.16202794   -0.36785846
     atom    3 type  1   force =     0.00000000    0.16202794    0.36785846
     atom    4 type  1   force =     0.00000000    0.16202794   -0.36785846
     atom    5 type  2   force =     0.00000000   -0.97071383    2.28334937
     atom    6 type  2   force =     0.00000000   -0.97071383   -2.28334937
     atom    7 type  2   force =     0.00000000    0.97071383    2.28334937
     atom    8 type  2   force =    -0.00000000    0.97071383   -2.28334937
     The ionic contribution  to forces
     atom    1 type  1   force =    -0.00000000    0.91439883    2.68704709
     atom    2 type  1   force =    -0.00000000    0.91439883   -2.68704709
     atom    3 type  1   force =     0.00000000   -0.91439883    2.68704709
     atom    4 type  1   force =     0.00000000   -0.91439883   -2.68704709
     atom    5 type  2   force =     0.00000000    4.28250416  -44.49509369
     atom    6 type  2   force =     0.00000000    4.28250416   44.49509369
     atom    7 type  2   force =     0.00000000   -4.28250416  -44.49509369
     atom    8 type  2   force =     0.00000000   -4.28250416   44.49509369
     The local contribution  to forces
     atom    1 type  1   force =     0.00000000   -0.75333272   -3.05219556
     atom    2 type  1   force =     0.00000000   -0.75333272    3.05219556
     atom    3 type  1   force =    -0.00000000    0.75333272   -3.05219556
     atom    4 type  1   force =    -0.00000000    0.75333272    3.05219556
     atom    5 type  2   force =     0.00000000   -3.31179673   42.21155256
     atom    6 type  2   force =    -0.00000000   -3.31179673  -42.21155256
     atom    7 type  2   force =     0.00000000    3.31179673   42.21155256
     atom    8 type  2   force =     0.00000000    3.31179673  -42.21155256
     The core correction contribution to forces
     atom    1 type  1   force =     0.00000000    0.00097136   -0.00267316
     atom    2 type  1   force =     0.00000000    0.00097136    0.00267316
     atom    3 type  1   force =    -0.00000000   -0.00097136   -0.00267316
     atom    4 type  1   force =    -0.00000000   -0.00097136    0.00267316
     atom    5 type  2   force =     0.00000000    0.00000000    0.00000000
     atom    6 type  2   force =     0.00000000    0.00000000    0.00000000
     atom    7 type  2   force =     0.00000000    0.00000000    0.00000000
     atom    8 type  2   force =     0.00000000    0.00000000    0.00000000
     The Hubbard contrib.    to forces
     atom    1 type  1   force =     0.00000000    0.00000000    0.00000000
     atom    2 type  1   force =     0.00000000    0.00000000    0.00000000
     atom    3 type  1   force =     0.00000000    0.00000000    0.00000000
     atom    4 type  1   force =     0.00000000    0.00000000    0.00000000
     atom    5 type  2   force =     0.00000000    0.00000000    0.00000000
     atom    6 type  2   force =     0.00000000    0.00000000    0.00000000
     atom    7 type  2   force =     0.00000000    0.00000000    0.00000000
     atom    8 type  2   force =     0.00000000    0.00000000    0.00000000
     The SCF correction term to forces
     atom    1 type  1   force =    -0.00000000   -0.00000075   -0.00005978
     atom    2 type  1   force =    -0.00000000   -0.00000075    0.00005978
     atom    3 type  1   force =     0.00000000    0.00000075   -0.00005978
     atom    4 type  1   force =    -0.00000000    0.00000075    0.00005978
     atom    5 type  2   force =     0.00000000   -0.00000340    0.00015755
     atom    6 type  2   force =     0.00000000   -0.00000340   -0.00015755
     atom    7 type  2   force =     0.00000000    0.00000340    0.00015755
     atom    8 type  2   force =     0.00000000    0.00000340   -0.00015755

     Total force =     0.000086     Total SCF correction =     0.000337
     SCF correction compared to forces is large: reduce conv_thr to get better values


     Computing stress (Cartesian axis) and pressure


     negative rho (up, down):  2.271E-06 0.000E+00
          total   stress  (Ry/bohr**3)                   (kbar)     P=        0.03
   0.00000011   0.00000000   0.00000000            0.02        0.00        0.00
   0.00000000   0.00000016   0.00000000            0.00        0.02        0.00
   0.00000000   0.00000000   0.00000031            0.00        0.00        0.05

     kinetic stress (kbar)   9135.71      0.00      0.00
                                0.00   8958.45      0.00
                                0.00      0.00   8301.45

     local   stress (kbar)-161108.05     -0.00      0.00
                               -0.00-162214.00     -0.00
                                0.00     -0.00 155410.69

     nonloc. stress (kbar)   1180.30      0.00      0.00
                                0.00   1137.49      0.00
                                0.00      0.00    963.84

     hartree stress (kbar)  80821.17      0.00      0.00
                                0.00  81109.34     -0.00
                                0.00     -0.00 -74841.59

     exc-cor stress (kbar)  -2141.78     -0.00      0.00
                               -0.00  -2137.83     -0.00
                                0.00     -0.00  -2131.15

     corecor stress (kbar)    -73.64      0.00     -0.00
                                0.00    -73.49      0.00
                               -0.00     -0.00    -72.52

     ewald   stress (kbar)  72186.31      0.00      0.00
                                0.00  73220.06      0.00
                                0.00      0.00 -87630.66

     hubbard stress (kbar)      0.00      0.00      0.00
                                0.00      0.00      0.00
                                0.00      0.00      0.00

     DFT-D   stress (kbar)      0.00      0.00      0.00
                                0.00      0.00      0.00
                                0.00      0.00      0.00

     XDM     stress (kbar)      0.00      0.00      0.00
                                0.00      0.00      0.00
                                0.00      0.00      0.00

     dft-nl  stress (kbar)      0.00      0.00      0.00
                                0.00      0.00      0.00
                                0.00      0.00      0.00

     TS-vdW  stress (kbar)      0.00      0.00      0.00
                                0.00      0.00      0.00
                                0.00      0.00      0.00

     MDB     stress (kbar)      0.00      0.00      0.00
                                0.00      0.00      0.00
                                0.00      0.00      0.00

     3D-RISM stress (kbar)      0.00      0.00      0.00
                                0.00      0.00      0.00
                                0.00      0.00      0.00


     Writing all to output data dir ../tmp/fgz.save/

     init_run     :     20.22s CPU     37.37s WALL (       1 calls)
     electrons    :    795.33s CPU   1451.53s WALL (       1 calls)
     forces       :     19.33s CPU     38.63s WALL (       1 calls)
     stress       :      9.65s CPU     22.51s WALL (       1 calls)

     Called by init_run:
     wfcinit      :     18.10s CPU     34.90s WALL (       1 calls)
     wfcinit:atom :      0.02s CPU      0.01s WALL (      16 calls)
     wfcinit:wfcr :     17.82s CPU     34.37s WALL (      16 calls)
     potinit      :      0.17s CPU      0.19s WALL (       1 calls)
     hinit0       :      0.64s CPU      0.67s WALL (       1 calls)

     Called by electrons:
     c_bands      :    761.62s CPU   1374.65s WALL (       9 calls)
     sum_band     :     31.63s CPU     72.67s WALL (       9 calls)
     v_of_rho     :      0.28s CPU      0.32s WALL (       9 calls)
     v_h          :      0.02s CPU      0.02s WALL (       9 calls)
     v_xc         :      0.33s CPU      0.37s WALL (      11 calls)
     newd         :      2.10s CPU      4.01s WALL (       9 calls)
     mix_rho      :      0.14s CPU      0.18s WALL (       9 calls)

     Called by c_bands:
     init_us_2    :      0.24s CPU      0.67s WALL (     336 calls)
     init_us_2:cp :      0.24s CPU      0.67s WALL (     336 calls)
     cegterg      :    727.30s CPU   1302.95s WALL (     144 calls)

     Called by sum_band:
     sum_band:wei :      0.00s CPU      0.00s WALL (       9 calls)
     sum_band:loo :     29.18s CPU     67.24s WALL (       9 calls)
     sum_band:buf :      0.03s CPU      0.07s WALL (     144 calls)
     sum_band:ini :      0.08s CPU      0.16s WALL (     144 calls)
     sum_band:cal :     26.23s CPU     63.35s WALL (     144 calls)
     sum_band:bec :      0.00s CPU      0.00s WALL (     144 calls)
     addusdens    :      1.14s CPU      3.85s WALL (       9 calls)
     addusd:skk   :      0.04s CPU      0.11s WALL (      18 calls)
     addusd:dgemm :      0.73s CPU      2.76s WALL (      18 calls)
     addusd:qvan2 :      0.35s CPU      0.96s WALL (      18 calls)

     Called by *egterg:
     cdiaghg      :     74.18s CPU     57.34s WALL (     560 calls)
     cegterg:over :    230.16s CPU    375.71s WALL (     432 calls)
     cegterg:upda :     19.28s CPU     39.65s WALL (     432 calls)
     cegterg:last :     19.16s CPU     38.21s WALL (     293 calls)
     h_psi        :    182.32s CPU    440.67s WALL (     592 calls)
     s_psi        :      7.79s CPU     19.97s WALL (     592 calls)
     g_psi        :      0.10s CPU      0.12s WALL (     432 calls)

     Called by h_psi:
     h_psi:calbec :    110.93s CPU    273.64s WALL (     592 calls)
     vloc_psi     :     34.55s CPU     41.25s WALL (     592 calls)
     add_vuspsi   :     36.77s CPU    125.46s WALL (     592 calls)

     General routines
     calbec       :    160.84s CPU    382.62s WALL (     816 calls)
     fft          :      0.82s CPU      0.90s WALL (     125 calls)
     ffts         :      0.01s CPU      0.02s WALL (       9 calls)
     fftw         :     36.28s CPU     42.26s WALL (   24048 calls)

     Parallel routines

     PWSCF        :  14m 5.79s CPU  25m58.06s WALL


   This run was terminated on:  15:20:30  19Jan2024            

=------------------------------------------------------------------------------=
   JOB DONE.
=------------------------------------------------------------------------------=
