
     Program PWSCF v.7.1 starts on 24Feb2024 at  9:59:52 

     This program is part of the open-source Quantum ESPRESSO suite
     for quantum simulation of materials; please cite
         "P. Giannozzi et al., J. Phys.:Condens. Matter 21 395502 (2009);
         "P. Giannozzi et al., J. Phys.:Condens. Matter 29 465901 (2017);
         "P. Giannozzi et al., J. Chem. Phys. 152 154105 (2020);
          URL http://www.quantum-espresso.org", 
     in publications or presentations arising from this work. More details at
     http://www.quantum-espresso.org/quote

     Parallel version (MPI), running on    24 processors

     MPI processes distributed on     1 nodes
     252903 MiB available memory on the printing compute node when the environment starts

     Reading input from vc-relax.in

     Current dimensions of program PWSCF are:
     Max number of different atomic species (ntypx) = 10
     Max number of k-points (npk) =  40000
     Max angular momentum in pseudopotentials (lmaxx) =  4

     K-points division:     npool     =       6
     R & G space division:  proc/nbgrp/npool/nimage =       4
     Subspace diagonalization in iterative solution of the eigenvalue problem:
     a serial algorithm will be used


     Parallelization info
     --------------------
     sticks:   dense  smooth     PW     G-vecs:    dense   smooth      PW
     Min         832     832    228               276984   276984   38734
     Max         833     833    229               277001   277001   38747
     Sum        3331    3331    913              1107983  1107983  154963

     Using Slab Decomposition



     bravais-lattice index     =            4
     lattice parameter (alat)  =       4.9229  a.u.
     unit-cell volume          =     733.7343 (a.u.)^3
     number of atoms/cell      =            4
     number of atomic types    =            2
     number of electrons       =        22.00
     number of Kohn-Sham states=           15
     kinetic-energy cutoff     =     500.0000  Ry
     charge density cutoff     =    2000.0000  Ry
     scf convergence threshold =      1.0E-12
     mixing beta               =       0.7000
     number of iterations used =            8  plain     mixing
     energy convergence thresh.=      5.0E-06
     force convergence thresh. =      5.0E-05
     press convergence thresh. =      5.0E-02
     Exchange-correlation=  SLA  PW   PBX  PBC
                           (   1   4   3   4   0   0   0)
     nstep                     =           50


     celldm(1)=   4.922852  celldm(2)=   0.000000  celldm(3)=   7.101627
     celldm(4)=   0.000000  celldm(5)=   0.000000  celldm(6)=   0.000000

     crystal axes: (cart. coord. in units of alat)
               a(1) = (   1.000000   0.000000   0.000000 )  
               a(2) = (  -0.500000   0.866025   0.000000 )  
               a(3) = (   0.000000   0.000000   7.101627 )  

     reciprocal axes: (cart. coord. in units 2 pi/alat)
               b(1) = (  1.000000  0.577350 -0.000000 )  
               b(2) = (  0.000000  1.154701  0.000000 )  
               b(3) = (  0.000000 -0.000000  0.140813 )  


     PseudoPot. # 1 for C  read from file:
     ../pseudo/c_pbe_v1.2.uspp.F.UPF
     MD5 check sum: d1aef80898a10debaa0f26306b886e00
     Pseudo is Ultrasoft + core correction, Zval =  4.0
     Generated by new atomic code, or converted to UPF format
     Using radial grid of  721 points,  4 beta functions with: 
                l(1) =   0
                l(2) =   0
                l(3) =   1
                l(4) =   1
     Q(r) pseudized with  8 coefficients,  rinner =    1.100   1.100   1.100


     PseudoPot. # 2 for F  read from file:
     ../pseudo/f_pbe_v1.4.uspp.F.UPF
     MD5 check sum: 4c38b6a325caf53ec0e86aed9459de46
     Pseudo is Ultrasoft, Zval =  7.0
     Generated by new atomic code, or converted to UPF format
     Using radial grid of  799 points,  4 beta functions with: 
                l(1) =   0
                l(2) =   0
                l(3) =   1
                l(4) =   1
     Q(r) pseudized with  8 coefficients,  rinner =    0.950   0.950   0.950


     atomic species   valence    mass     pseudopotential
        C              4.00    12.01070     C ( 1.00)
        F              7.00    18.99840     F ( 1.00)

     12 Sym. Ops., with inversion, found ( 8 have fractional translation)


                                    s                        frac. trans.

      isym =  1     identity                                     

 cryst.   s( 1) = (     1          0          0      )
                  (     0          1          0      )
                  (     0          0          1      )

 cart.    s( 1) = (  1.0000000  0.0000000  0.0000000 )
                  (  0.0000000  1.0000000  0.0000000 )
                  (  0.0000000  0.0000000  1.0000000 )


      isym =  2     180 deg rotation - cart. axis [1,0,0]        

 cryst.   s( 2) = (     1          0          0      )
                  (    -1         -1          0      )
                  (     0          0         -1      )

 cart.    s( 2) = (  1.0000000  0.0000000  0.0000000 )
                  (  0.0000000 -1.0000000  0.0000000 )
                  (  0.0000000  0.0000000 -1.0000000 )


      isym =  3     120 deg rotation - cryst. axis [0,0,1]       

 cryst.   s( 3) = (     0          1          0      )    f =( -0.5000000 )
                  (    -1         -1          0      )       ( -0.5000000 )
                  (     0          0          1      )       (  0.0000000 )

 cart.    s( 3) = ( -0.5000000 -0.8660254  0.0000000 )    f =( -0.2500000 )
                  (  0.8660254 -0.5000000  0.0000000 )       ( -0.4330127 )
                  (  0.0000000  0.0000000  1.0000000 )       (  0.0000000 )


      isym =  4     120 deg rotation - cryst. axis [0,0,-1]      

 cryst.   s( 4) = (    -1         -1          0      )    f =(  0.0000000 )
                  (     1          0          0      )       ( -0.5000000 )
                  (     0          0          1      )       (  0.0000000 )

 cart.    s( 4) = ( -0.5000000  0.8660254  0.0000000 )    f =(  0.2500000 )
                  ( -0.8660254 -0.5000000  0.0000000 )       ( -0.4330127 )
                  (  0.0000000  0.0000000  1.0000000 )       (  0.0000000 )


      isym =  5     180 deg rotation - cryst. axis [0,1,0]       

 cryst.   s( 5) = (    -1         -1          0      )    f =(  0.0000000 )
                  (     0          1          0      )       ( -0.5000000 )
                  (     0          0         -1      )       (  0.0000000 )

 cart.    s( 5) = ( -0.5000000 -0.8660254  0.0000000 )    f =(  0.2500000 )
                  ( -0.8660254  0.5000000  0.0000000 )       ( -0.4330127 )
                  (  0.0000000  0.0000000 -1.0000000 )       (  0.0000000 )


      isym =  6     180 deg rotation - cryst. axis [1,1,0]       

 cryst.   s( 6) = (     0          1          0      )    f =(  0.5000000 )
                  (     1          0          0      )       (  0.5000000 )
                  (     0          0         -1      )       (  0.0000000 )

 cart.    s( 6) = ( -0.5000000  0.8660254  0.0000000 )    f =(  0.2500000 )
                  (  0.8660254  0.5000000  0.0000000 )       (  0.4330127 )
                  (  0.0000000  0.0000000 -1.0000000 )       (  0.0000000 )


      isym =  7     inversion                                    

 cryst.   s( 7) = (    -1          0          0      )
                  (     0         -1          0      )
                  (     0          0         -1      )

 cart.    s( 7) = ( -1.0000000  0.0000000  0.0000000 )
                  (  0.0000000 -1.0000000  0.0000000 )
                  (  0.0000000  0.0000000 -1.0000000 )


      isym =  8     inv. 180 deg rotation - cart. axis [1,0,0]   

 cryst.   s( 8) = (    -1          0          0      )
                  (     1          1          0      )
                  (     0          0          1      )

 cart.    s( 8) = ( -1.0000000  0.0000000  0.0000000 )
                  (  0.0000000  1.0000000  0.0000000 )
                  (  0.0000000  0.0000000  1.0000000 )


      isym =  9     inv. 120 deg rotation - cryst. axis [0,0,1]  

 cryst.   s( 9) = (     0         -1          0      )    f =(  0.5000000 )
                  (     1          1          0      )       ( -0.5000000 )
                  (     0          0         -1      )       (  0.0000000 )

 cart.    s( 9) = (  0.5000000  0.8660254  0.0000000 )    f =(  0.7500000 )
                  ( -0.8660254  0.5000000  0.0000000 )       ( -0.4330127 )
                  (  0.0000000  0.0000000 -1.0000000 )       (  0.0000000 )


      isym = 10     inv. 120 deg rotation - cryst. axis [0,0,-1] 

 cryst.   s(10) = (     1          1          0      )    f =(  0.0000000 )
                  (    -1          0          0      )       (  0.5000000 )
                  (     0          0         -1      )       (  0.0000000 )

 cart.    s(10) = (  0.5000000 -0.8660254  0.0000000 )    f =( -0.2500000 )
                  (  0.8660254  0.5000000  0.0000000 )       (  0.4330127 )
                  (  0.0000000  0.0000000 -1.0000000 )       (  0.0000000 )


      isym = 11     inv. 180 deg rotation - cryst. axis [0,1,0]  

 cryst.   s(11) = (     1          1          0      )    f =(  0.0000000 )
                  (     0         -1          0      )       ( -0.5000000 )
                  (     0          0          1      )       (  0.0000000 )

 cart.    s(11) = (  0.5000000  0.8660254  0.0000000 )    f =(  0.2500000 )
                  (  0.8660254 -0.5000000  0.0000000 )       ( -0.4330127 )
                  (  0.0000000  0.0000000  1.0000000 )       (  0.0000000 )


      isym = 12     inv. 180 deg rotation - cryst. axis [1,1,0]  

 cryst.   s(12) = (     0         -1          0      )    f =( -0.5000000 )
                  (    -1          0          0      )       ( -0.5000000 )
                  (     0          0          1      )       (  0.0000000 )

 cart.    s(12) = (  0.5000000 -0.8660254  0.0000000 )    f =( -0.2500000 )
                  ( -0.8660254 -0.5000000  0.0000000 )       ( -0.4330127 )
                  (  0.0000000  0.0000000  1.0000000 )       (  0.0000000 )


     point group D_3d (-3m) 
     there are  6 classes
     the character table:

       E     2C3   3C2'  i     2S6   3s_d 
A_1g   1.00  1.00  1.00  1.00  1.00  1.00
A_2g   1.00  1.00 -1.00  1.00  1.00 -1.00
E_g    2.00 -1.00  0.00  2.00 -1.00  0.00
A_1u   1.00  1.00  1.00 -1.00 -1.00 -1.00
A_2u   1.00  1.00 -1.00 -1.00 -1.00  1.00
E_u    2.00 -1.00  0.00 -2.00  1.00  0.00

     the symmetry operations in each class and the name of the first element:

     E        1
          identity                                               
     2C3      3    4
          120 deg rotation - cryst. axis [0,0,1]                 
     3C2'     2    5    6
          180 deg rotation - cart. axis [1,0,0]                  
     i        7
          inversion                                              
     2S6      9   10
          inv. 120 deg rotation - cryst. axis [0,0,1]            
     3s_d     8   11   12
          inv. 180 deg rotation - cart. axis [1,0,0]             

   Cartesian axes

     site n.     atom                  positions (alat units)
         1           C   tau(   1) = (   0.5000000   0.5773503  -0.0938017  )
         2           C   tau(   2) = (  -0.0000000   0.2886751   0.0938017  )
         3           F   tau(   3) = (   0.5000000   0.5773503  -0.6235043  )
         4           F   tau(   4) = (  -0.0000000   0.2886751   0.6235043  )

   Crystallographic axes

     site n.     atom                  positions (cryst. coord.)
         1           C   tau(   1) = (  0.8333333  0.6666667 -0.0132085  )
         2           C   tau(   2) = (  0.1666667  0.3333333  0.0132085  )
         3           F   tau(   3) = (  0.8333333  0.6666667 -0.0877974  )
         4           F   tau(   4) = (  0.1666667  0.3333333  0.0877974  )

     number of k points=    12  Marzari-Vanderbilt smearing, width (Ry)=  0.0010
                       cart. coord. in units 2pi/alat
        k(    1) = (   0.0000000   0.0000000   0.0000000), wk =   0.0246914
        k(    2) = (   0.0000000   0.1283001   0.0000000), wk =   0.1481481
        k(    3) = (   0.0000000   0.2566001   0.0000000), wk =   0.1481481
        k(    4) = (   0.0000000   0.3849002   0.0000000), wk =   0.1481481
        k(    5) = (   0.0000000   0.5132002   0.0000000), wk =   0.1481481
        k(    6) = (   0.1111111   0.1924501   0.0000000), wk =   0.1481481
        k(    7) = (   0.1111111   0.3207501   0.0000000), wk =   0.2962963
        k(    8) = (   0.1111111   0.4490502   0.0000000), wk =   0.2962963
        k(    9) = (   0.1111111   0.5773503   0.0000000), wk =   0.1481481
        k(   10) = (   0.2222222   0.3849002   0.0000000), wk =   0.1481481
        k(   11) = (   0.2222222   0.5132002   0.0000000), wk =   0.2962963
        k(   12) = (   0.3333333   0.5773503   0.0000000), wk =   0.0493827

                       cryst. coord.
        k(    1) = (   0.0000000   0.0000000   0.0000000), wk =   0.0246914
        k(    2) = (   0.0000000   0.1111111   0.0000000), wk =   0.1481481
        k(    3) = (   0.0000000   0.2222222   0.0000000), wk =   0.1481481
        k(    4) = (   0.0000000   0.3333333   0.0000000), wk =   0.1481481
        k(    5) = (   0.0000000   0.4444444   0.0000000), wk =   0.1481481
        k(    6) = (   0.1111111   0.1111111   0.0000000), wk =   0.1481481
        k(    7) = (   0.1111111   0.2222222   0.0000000), wk =   0.2962963
        k(    8) = (   0.1111111   0.3333333   0.0000000), wk =   0.2962963
        k(    9) = (   0.1111111   0.4444444   0.0000000), wk =   0.1481481
        k(   10) = (   0.2222222   0.2222222   0.0000000), wk =   0.1481481
        k(   11) = (   0.2222222   0.3333333   0.0000000), wk =   0.2962963
        k(   12) = (   0.3333333   0.3333333   0.0000000), wk =   0.0493827

     Dense  grid:  1107983 G-vectors     FFT dimensions: (  72,  72, 500)

     Dynamical RAM for                 wfc:       7.93 MB

     Dynamical RAM for     wfc (w. buffer):      23.78 MB

     Dynamical RAM for           str. fact:       8.45 MB

     Dynamical RAM for           local pot:       0.00 MB

     Dynamical RAM for          nlocal pot:      16.91 MB

     Dynamical RAM for                qrad:       4.10 MB

     Dynamical RAM for          rho,v,vnew:      27.51 MB

     Dynamical RAM for               rhoin:       9.17 MB

     Dynamical RAM for            rho*nmix:      67.63 MB

     Dynamical RAM for           G-vectors:      17.96 MB

     Dynamical RAM for          h,s,v(r/c):       0.04 MB

     Dynamical RAM for          <psi|beta>:       0.01 MB

     Dynamical RAM for                 psi:      15.85 MB

     Dynamical RAM for                hpsi:      15.85 MB

     Dynamical RAM for                spsi:      15.85 MB

     Dynamical RAM for      wfcinit/wfcrot:      16.92 MB

     Dynamical RAM for           addusdens:      35.22 MB

     Dynamical RAM for          addusforce:      35.22 MB

     Dynamical RAM for         addusstress:      36.98 MB

     Estimated static dynamical RAM per process >     145.29 MB

     Estimated max dynamical RAM per process >     260.52 MB

     Estimated total dynamical RAM >       4.79 GB

     Initial potential from superposition of free atoms

     starting charge      21.9999, renormalised to      22.0000

     negative rho (up, down):  1.602E-03 0.000E+00
     Starting wfcs are   16 randomized atomic wfcs

     total cpu time spent up to now is       13.0 secs

     Self-consistent Calculation

     iteration #  1     ecut=   500.00 Ry     beta= 0.70
     Davidson diagonalization with overlap

---- Real-time Memory Report at c_bands before calling an iterative solver
           207 MiB given to the printing process from OS
             0 MiB allocation reported by mallinfo(arena+hblkhd)
        249064 MiB available memory on the node where the printing process lives
------------------
     ethr =  1.00E-02,  avg # of iterations =  4.2

     Threshold (ethr) on eigenvalues was too large:
     Diagonalizing with lowered threshold

     Davidson diagonalization with overlap

---- Real-time Memory Report at c_bands before calling an iterative solver
           238 MiB given to the printing process from OS
             0 MiB allocation reported by mallinfo(arena+hblkhd)
        248440 MiB available memory on the node where the printing process lives
------------------
     ethr =  9.43E-04,  avg # of iterations =  1.5

     negative rho (up, down):  4.584E-04 0.000E+00

     total cpu time spent up to now is       49.4 secs

     total energy              =    -120.08902178 Ry
     estimated scf accuracy    <       0.20522720 Ry

     iteration #  2     ecut=   500.00 Ry     beta= 0.70
     Davidson diagonalization with overlap

---- Real-time Memory Report at c_bands before calling an iterative solver
           298 MiB given to the printing process from OS
             0 MiB allocation reported by mallinfo(arena+hblkhd)
        248229 MiB available memory on the node where the printing process lives
------------------
     ethr =  9.33E-04,  avg # of iterations =  2.1

     negative rho (up, down):  2.534E-04 0.000E+00

     total cpu time spent up to now is       66.7 secs

     total energy              =    -120.10210600 Ry
     estimated scf accuracy    <       0.10667905 Ry

     iteration #  3     ecut=   500.00 Ry     beta= 0.70
     Davidson diagonalization with overlap

---- Real-time Memory Report at c_bands before calling an iterative solver
           308 MiB given to the printing process from OS
             0 MiB allocation reported by mallinfo(arena+hblkhd)
        248540 MiB available memory on the node where the printing process lives
------------------
     ethr =  4.85E-04,  avg # of iterations =  3.2

     negative rho (up, down):  5.510E-05 0.000E+00

     total cpu time spent up to now is       87.2 secs

     total energy              =    -120.13178349 Ry
     estimated scf accuracy    <       0.01489352 Ry

     iteration #  4     ecut=   500.00 Ry     beta= 0.70
     Davidson diagonalization with overlap

---- Real-time Memory Report at c_bands before calling an iterative solver
           316 MiB given to the printing process from OS
             0 MiB allocation reported by mallinfo(arena+hblkhd)
        244808 MiB available memory on the node where the printing process lives
------------------
     ethr =  6.77E-05,  avg # of iterations =  4.8

     negative rho (up, down):  9.750E-06 0.000E+00

     total cpu time spent up to now is      114.7 secs

     total energy              =    -120.13426229 Ry
     estimated scf accuracy    <       0.00012463 Ry

     iteration #  5     ecut=   500.00 Ry     beta= 0.70
     Davidson diagonalization with overlap

---- Real-time Memory Report at c_bands before calling an iterative solver
           325 MiB given to the printing process from OS
             0 MiB allocation reported by mallinfo(arena+hblkhd)
        244833 MiB available memory on the node where the printing process lives
------------------
     ethr =  5.66E-07,  avg # of iterations =  5.8

     negative rho (up, down):  5.493E-06 0.000E+00

     total cpu time spent up to now is      143.2 secs

     total energy              =    -120.13430025 Ry
     estimated scf accuracy    <       0.00000551 Ry

     iteration #  6     ecut=   500.00 Ry     beta= 0.70
     Davidson diagonalization with overlap

---- Real-time Memory Report at c_bands before calling an iterative solver
           333 MiB given to the printing process from OS
             0 MiB allocation reported by mallinfo(arena+hblkhd)
        244795 MiB available memory on the node where the printing process lives
------------------
     ethr =  2.50E-08,  avg # of iterations =  2.1

     negative rho (up, down):  5.446E-06 0.000E+00

     total cpu time spent up to now is      159.2 secs

     total energy              =    -120.13430103 Ry
     estimated scf accuracy    <       0.00000025 Ry

     iteration #  7     ecut=   500.00 Ry     beta= 0.70
     Davidson diagonalization with overlap

---- Real-time Memory Report at c_bands before calling an iterative solver
           342 MiB given to the printing process from OS
             0 MiB allocation reported by mallinfo(arena+hblkhd)
        244764 MiB available memory on the node where the printing process lives
------------------
     ethr =  1.14E-09,  avg # of iterations =  2.2

     negative rho (up, down):  5.450E-06 0.000E+00

     total cpu time spent up to now is      179.3 secs

     total energy              =    -120.13430112 Ry
     estimated scf accuracy    <       0.00000004 Ry

     iteration #  8     ecut=   500.00 Ry     beta= 0.70
     Davidson diagonalization with overlap

---- Real-time Memory Report at c_bands before calling an iterative solver
           350 MiB given to the printing process from OS
             0 MiB allocation reported by mallinfo(arena+hblkhd)
        245077 MiB available memory on the node where the printing process lives
------------------
     ethr =  1.87E-10,  avg # of iterations =  2.0

     negative rho (up, down):  5.453E-06 0.000E+00

     total cpu time spent up to now is      193.9 secs

     total energy              =    -120.13430113 Ry
     estimated scf accuracy    <          6.6E-11 Ry

     iteration #  9     ecut=   500.00 Ry     beta= 0.70
     Davidson diagonalization with overlap

---- Real-time Memory Report at c_bands before calling an iterative solver
           359 MiB given to the printing process from OS
             0 MiB allocation reported by mallinfo(arena+hblkhd)
        245387 MiB available memory on the node where the printing process lives
------------------
     ethr =  2.99E-13,  avg # of iterations =  4.6

     negative rho (up, down):  5.454E-06 0.000E+00

     total cpu time spent up to now is      220.4 secs

     total energy              =    -120.13430113 Ry
     estimated scf accuracy    <          3.4E-11 Ry

     iteration # 10     ecut=   500.00 Ry     beta= 0.70
     Davidson diagonalization with overlap

---- Real-time Memory Report at c_bands before calling an iterative solver
           367 MiB given to the printing process from OS
             0 MiB allocation reported by mallinfo(arena+hblkhd)
        244965 MiB available memory on the node where the printing process lives
------------------
     ethr =  1.56E-13,  avg # of iterations =  2.0

     negative rho (up, down):  5.454E-06 0.000E+00

     total cpu time spent up to now is      236.4 secs

     total energy              =    -120.13430113 Ry
     estimated scf accuracy    <          1.4E-12 Ry

     iteration # 11     ecut=   500.00 Ry     beta= 0.70
     Davidson diagonalization with overlap

---- Real-time Memory Report at c_bands before calling an iterative solver
           367 MiB given to the printing process from OS
             0 MiB allocation reported by mallinfo(arena+hblkhd)
        244967 MiB available memory on the node where the printing process lives
------------------
     ethr =  1.00E-13,  avg # of iterations =  1.0

     negative rho (up, down):  5.454E-06 0.000E+00

     total cpu time spent up to now is      248.0 secs

     End of self-consistent calculation

          k = 0.0000 0.0000 0.0000 (138771 PWs)   bands (ev):

   -29.3982 -28.9023 -20.1881 -12.8243  -9.8424  -8.0997  -8.0997  -6.9220
    -6.9220  -3.9534  -3.9534  -0.8110   3.4084   3.4084   3.5914

     occupation numbers 
     1.0000   1.0000   1.0000   1.0000   1.0000   1.0000   1.0000   1.0000
     1.0000   1.0000   1.0000   0.0000   0.0000   0.0000   0.0000

          k = 0.0000 0.1283 0.0000 (138707 PWs)   bands (ev):

   -29.2923 -28.8267 -19.9985 -12.7257  -9.9388  -8.8930  -8.3612  -7.1334
    -6.9672  -4.6910  -4.2207  -0.2281   3.4871   3.9615   4.1913

     occupation numbers 
     1.0000   1.0000   1.0000   1.0000   1.0000   1.0000   1.0000   1.0000
     1.0000   1.0000   1.0000   0.0000   0.0000   0.0000   0.0000

          k = 0.0000 0.2566 0.0000 (138608 PWs)   bands (ev):

   -29.0115 -28.6316 -19.4317 -12.5181 -10.8364 -10.0610  -8.9689  -7.6269
    -7.0991  -6.0283  -4.7105   0.6369   3.7096   4.9621   5.3958

     occupation numbers 
     1.0000   1.0000   1.0000   1.0000   1.0000   1.0000   1.0000   1.0000
     1.0000   1.0000   1.0000   0.0000   0.0000   0.0000   0.0000

          k = 0.0000 0.3849 0.0000 (138490 PWs)   bands (ev):

   -28.6641 -28.4073 -18.4932 -13.3501 -11.8018 -10.4605  -9.5846  -8.1013
    -7.2610  -7.1935  -5.1012   1.1686   4.1216   5.8531   7.6662

     occupation numbers 
     1.0000   1.0000   1.0000   1.0000   1.0000   1.0000   1.0000   1.0000
     1.0000   1.0000   1.0000   0.0000   0.0000   0.0000   0.0000

          k = 0.0000 0.5132 0.0000 (138408 PWs)   bands (ev):

   -28.4067 -28.2714 -17.2291 -15.2464 -11.6314 -10.7449  -9.9513  -8.3904
    -7.8384  -7.3686  -5.3063   1.4258   4.5380   5.1405   8.6112

     occupation numbers 
     1.0000   1.0000   1.0000   1.0000   1.0000   1.0000   1.0000   1.0000
     1.0000   1.0000   1.0000   0.0000   0.0000   0.0000   0.0000

          k = 0.1111 0.1925 0.0000 (138655 PWs)   bands (ev):

   -29.0987 -28.6911 -19.6201 -12.5642 -10.1645 -10.0514  -8.9114  -7.3695
    -7.1914  -5.5369  -4.7479   0.5649   3.9657   4.6668   4.7202

     occupation numbers 
     1.0000   1.0000   1.0000   1.0000   1.0000   1.0000   1.0000   1.0000
     1.0000   1.0000   1.0000   0.0000   0.0000   0.0000   0.0000

          k = 0.1111 0.3208 0.0000 (138592 PWs)   bands (ev):

   -28.7833 -28.4800 -18.8659 -12.6225 -11.5426 -10.5481  -9.6325  -7.8409
    -7.4896  -6.5320  -5.3037   1.4953   4.4698   5.8068   6.2566

     occupation numbers 
     1.0000   1.0000   1.0000   1.0000   1.0000   1.0000   1.0000   1.0000
     1.0000   1.0000   1.0000   0.0000   0.0000   0.0000   0.0000

          k = 0.1111 0.4491 0.0000 (138489 PWs)   bands (ev):

   -28.4767 -28.2987 -17.7476 -14.2286 -11.6900 -10.8169 -10.2346  -8.3218
    -7.7179  -7.2430  -5.6132   2.1639   4.7803   5.6221   7.8935

     occupation numbers 
     1.0000   1.0000   1.0000   1.0000   1.0000   1.0000   1.0000   1.0000
     1.0000   1.0000   1.0000   0.0000   0.0000   0.0000   0.0000

          k = 0.1111 0.5774 0.0000 (138378 PWs)   bands (ev):

   -28.3368 -28.2388 -16.6286 -15.6629 -11.6358 -10.7685 -10.5850  -8.5095
    -7.8368  -7.4637  -5.7137   2.4668   4.9991   5.0003   8.2594

     occupation numbers 
     1.0000   1.0000   1.0000   1.0000   1.0000   1.0000   1.0000   1.0000
     1.0000   1.0000   1.0000   0.0000   0.0000   0.0000   0.0000

          k = 0.2222 0.3849 0.0000 (138481 PWs)   bands (ev):

   -28.5057 -28.3098 -17.9255 -13.4685 -11.6288 -11.4808 -10.2560  -8.2754
    -7.8147  -6.9055  -6.0347   2.7369   5.8172   6.5547   6.6836

     occupation numbers 
     1.0000   1.0000   1.0000   1.0000   1.0000   1.0000   1.0000   1.0000
     1.0000   1.0000   1.0000   0.0000   0.0000   0.0000   0.0000

          k = 0.2222 0.5132 0.0000 (138484 PWs)   bands (ev):

   -28.3007 -28.2128 -16.6691 -14.8655 -12.3423 -11.1697 -10.6666  -8.6638
    -7.7341  -7.3807  -6.3916   3.7597   5.3445   6.4890   7.4543

     occupation numbers 
     1.0000   1.0000   1.0000   1.0000   1.0000   1.0000   1.0000   1.0000
     1.0000   1.0000   1.0000   0.0000   0.0000   0.0000   0.0000

          k = 0.3333 0.5774 0.0000 (138462 PWs)   bands (ev):

   -28.2049 -28.2049 -15.5335 -15.5335 -13.1927 -10.9161 -10.9161  -8.8360
    -7.5002  -7.5002  -6.8615   4.8178   4.8178   7.0278   8.4927

     occupation numbers 
     1.0000   1.0000   1.0000   1.0000   1.0000   1.0000   1.0000   1.0000
     1.0000   1.0000   1.0000   0.0000   0.0000   0.0000   0.0000

     the Fermi energy is    -3.2157 ev

!    total energy              =    -120.13430113 Ry
     estimated scf accuracy    <          1.5E-13 Ry
     smearing contrib. (-TS)   =       0.00000000 Ry
     internal energy E=F+TS    =    -120.13430113 Ry

     The total energy is F=E-TS. E is the sum of the following terms:
     one-electron contribution =    -975.19912235 Ry
     hartree contribution      =     493.36107824 Ry
     xc contribution           =     -25.85848332 Ry
     ewald contribution        =     387.56222630 Ry

     convergence has been achieved in  11 iterations

     negative rho (up, down):  5.454E-06 0.000E+00

     Forces acting on atoms (cartesian axes, Ry/au):

     atom    1 type  1   force =     0.00000000    0.00000000   -0.00032270
     atom    2 type  1   force =     0.00000000    0.00000000    0.00032270
     atom    3 type  2   force =     0.00000000    0.00000000    0.00002839
     atom    4 type  2   force =    -0.00000000   -0.00000000   -0.00002839
     The non-local contrib.  to forces
     atom    1 type  1   force =     0.00000000    0.00000000   -0.39799675
     atom    2 type  1   force =    -0.00000000   -0.00000000    0.39799675
     atom    3 type  2   force =     0.00000000   -0.00000000    2.50680059
     atom    4 type  2   force =    -0.00000000    0.00000000   -2.50680059
     The ionic contribution  to forces
     atom    1 type  1   force =    -0.00000001    0.00000000   -1.16488099
     atom    2 type  1   force =     0.00000001   -0.00000000    1.16488099
     atom    3 type  2   force =    -0.00000000    0.00000000  -48.74159951
     atom    4 type  2   force =     0.00000000   -0.00000000   48.74159951
     The local contribution  to forces
     atom    1 type  1   force =    -0.00000000    0.00000001    1.55938520
     atom    2 type  1   force =     0.00000001   -0.00000000   -1.55938518
     atom    3 type  2   force =    -0.00000000    0.00000007   46.23482618
     atom    4 type  2   force =     0.00000016   -0.00000003  -46.23482619
     The core correction contribution to forces
     atom    1 type  1   force =    -0.00000000   -0.00000000    0.00316966
     atom    2 type  1   force =    -0.00000000    0.00000000   -0.00316966
     atom    3 type  2   force =     0.00000000    0.00000000    0.00000000
     atom    4 type  2   force =     0.00000000    0.00000000    0.00000000
     The Hubbard contrib.    to forces
     atom    1 type  1   force =     0.00000000    0.00000000    0.00000000
     atom    2 type  1   force =     0.00000000    0.00000000    0.00000000
     atom    3 type  2   force =     0.00000000    0.00000000    0.00000000
     atom    4 type  2   force =     0.00000000    0.00000000    0.00000000
     The SCF correction term to forces
     atom    1 type  1   force =    -0.00000000   -0.00000000    0.00000019
     atom    2 type  1   force =     0.00000000   -0.00000000   -0.00000019
     atom    3 type  2   force =     0.00000000    0.00000000    0.00000112
     atom    4 type  2   force =     0.00000000   -0.00000000   -0.00000112

     Total force =     0.000458     Total SCF correction =     0.000002


     Computing stress (Cartesian axis) and pressure


     negative rho (up, down):  5.454E-06 0.000E+00
          total   stress  (Ry/bohr**3)                   (kbar)     P=        0.10
   0.00000100  -0.00000000  -0.00000000            0.15       -0.00       -0.00
  -0.00000000   0.00000100  -0.00000000           -0.00        0.15       -0.00
   0.00000000   0.00000000   0.00000003            0.00        0.00        0.00

     kinetic stress (kbar)   6756.40      0.00      0.00
                                0.00   6756.40      0.00
                                0.00      0.00   6005.57

     local   stress (kbar)-188576.45      0.00     -0.00
                                0.00-188576.45      0.00
                               -0.00      0.00 183501.23

     nonloc. stress (kbar)    872.15     -0.00      0.00
                               -0.00    872.15      0.00
                                0.00      0.00    676.82

     hartree stress (kbar)  94250.27     -0.00     -0.00
                               -0.00  94250.27     -0.00
                               -0.00     -0.00 -89587.45

     exc-cor stress (kbar)  -1583.33     -0.00      0.00
                               -0.00  -1583.33     -0.00
                                0.00     -0.00  -1573.09

     corecor stress (kbar)    -54.54      0.00     -0.00
                                0.00    -54.54      0.00
                               -0.00      0.00    -53.44

     ewald   stress (kbar)  88335.65     -0.00      0.00
                               -0.00  88335.65     -0.00
                                0.00     -0.00 -98969.63

     hubbard stress (kbar)      0.00      0.00      0.00
                                0.00      0.00      0.00
                                0.00      0.00      0.00

     DFT-D   stress (kbar)      0.00      0.00      0.00
                                0.00      0.00      0.00
                                0.00      0.00      0.00

     XDM     stress (kbar)      0.00      0.00      0.00
                                0.00      0.00      0.00
                                0.00      0.00      0.00

     dft-nl  stress (kbar)      0.00      0.00      0.00
                                0.00      0.00      0.00
                                0.00      0.00      0.00

     TS-vdW  stress (kbar)      0.00      0.00      0.00
                                0.00      0.00      0.00
                                0.00      0.00      0.00

     MDB     stress (kbar)      0.00      0.00      0.00
                                0.00      0.00      0.00
                                0.00      0.00      0.00

     3D-RISM stress (kbar)      0.00      0.00      0.00
                                0.00      0.00      0.00
                                0.00      0.00      0.00


     BFGS Geometry Optimization
     Energy error            =      0.0E+00 Ry
     Gradient error          =      3.2E-04 Ry/Bohr
     Cell gradient error     =      1.5E-01 kbar

     number of scf cycles    =   1
     number of bfgs steps    =   0

     enthalpy           new  =    -120.1343011261 Ry

     new trust radius        =       0.0003226961 bohr
     new conv_thr            =            1.0E-12 Ry

     new unit-cell volume =    733.77111 a.u.^3 (   108.73366 Ang^3 )
     density =      0.94712 g/cm^3

CELL_PARAMETERS (alat=  4.92285192)
   1.000025112  -0.000000000   0.000000000
  -0.500012556   0.866047151   0.000000000
   0.000000000   0.000000000   7.101626824

ATOMIC_POSITIONS (crystal)
C             0.8333333330        0.6666666660       -0.0132177098
C             0.1666666660        0.3333333330        0.0132177098
F             0.8333333330        0.6666666660       -0.0877965751
F             0.1666666660        0.3333333330        0.0877965751



     Writing config-only to output data dir ../tmp/fgc.save/
     NEW-OLD atomic charge density approx. for the potential

     negative rho (up, down):  1.444E-05 0.000E+00
     extrapolated charge   22.00110, renormalised to   22.00000

     total cpu time spent up to now is      279.6 secs

     Self-consistent Calculation

     iteration #  1     ecut=   500.00 Ry     beta= 0.70
     Davidson diagonalization with overlap

---- Real-time Memory Report at c_bands before calling an iterative solver
           372 MiB given to the printing process from OS
             0 MiB allocation reported by mallinfo(arena+hblkhd)
        245790 MiB available memory on the node where the printing process lives
------------------
     ethr =  1.00E-06,  avg # of iterations =  3.8

     Threshold (ethr) on eigenvalues was too large:
     Diagonalizing with lowered threshold

     Davidson diagonalization with overlap

---- Real-time Memory Report at c_bands before calling an iterative solver
           372 MiB given to the printing process from OS
             0 MiB allocation reported by mallinfo(arena+hblkhd)
        245680 MiB available memory on the node where the printing process lives
------------------
     ethr =  1.37E-09,  avg # of iterations =  2.5

     negative rho (up, down):  6.879E-06 0.000E+00

     total cpu time spent up to now is      320.9 secs

     total energy              =    -120.13430058 Ry
     estimated scf accuracy    <       0.00000030 Ry

     iteration #  2     ecut=   500.00 Ry     beta= 0.70
     Davidson diagonalization with overlap

---- Real-time Memory Report at c_bands before calling an iterative solver
           372 MiB given to the printing process from OS
             0 MiB allocation reported by mallinfo(arena+hblkhd)
        244802 MiB available memory on the node where the printing process lives
------------------
     ethr =  1.37E-09,  avg # of iterations =  3.2

     negative rho (up, down):  6.308E-06 0.000E+00

     total cpu time spent up to now is      339.9 secs

     total energy              =    -120.13430122 Ry
     estimated scf accuracy    <       0.00000073 Ry

     iteration #  3     ecut=   500.00 Ry     beta= 0.70
     Davidson diagonalization with overlap

---- Real-time Memory Report at c_bands before calling an iterative solver
           372 MiB given to the printing process from OS
             0 MiB allocation reported by mallinfo(arena+hblkhd)
        245091 MiB available memory on the node where the printing process lives
------------------
     ethr =  1.37E-09,  avg # of iterations =  2.0

     negative rho (up, down):  6.003E-06 0.000E+00

     total cpu time spent up to now is      354.2 secs

     total energy              =    -120.13430123 Ry
     estimated scf accuracy    <       0.00000016 Ry

     iteration #  4     ecut=   500.00 Ry     beta= 0.70
     Davidson diagonalization with overlap

---- Real-time Memory Report at c_bands before calling an iterative solver
           372 MiB given to the printing process from OS
             0 MiB allocation reported by mallinfo(arena+hblkhd)
        244745 MiB available memory on the node where the printing process lives
------------------
     ethr =  7.16E-10,  avg # of iterations =  1.0

     negative rho (up, down):  5.522E-06 0.000E+00

     total cpu time spent up to now is      366.2 secs

     total energy              =    -120.13430120 Ry
     estimated scf accuracy    <       0.00000008 Ry

     iteration #  5     ecut=   500.00 Ry     beta= 0.70
     Davidson diagonalization with overlap

---- Real-time Memory Report at c_bands before calling an iterative solver
           372 MiB given to the printing process from OS
             0 MiB allocation reported by mallinfo(arena+hblkhd)
        244710 MiB available memory on the node where the printing process lives
------------------
     ethr =  3.59E-10,  avg # of iterations =  2.0

     negative rho (up, down):  5.453E-06 0.000E+00

     total cpu time spent up to now is      381.9 secs

     total energy              =    -120.13430121 Ry
     estimated scf accuracy    <          3.3E-10 Ry

     iteration #  6     ecut=   500.00 Ry     beta= 0.70
     Davidson diagonalization with overlap

---- Real-time Memory Report at c_bands before calling an iterative solver
           372 MiB given to the printing process from OS
             0 MiB allocation reported by mallinfo(arena+hblkhd)
        245025 MiB available memory on the node where the printing process lives
------------------
     ethr =  1.52E-12,  avg # of iterations =  3.9

     negative rho (up, down):  5.453E-06 0.000E+00

     total cpu time spent up to now is      404.3 secs

     total energy              =    -120.13430121 Ry
     estimated scf accuracy    <          2.8E-10 Ry

     iteration #  7     ecut=   500.00 Ry     beta= 0.70
     Davidson diagonalization with overlap

---- Real-time Memory Report at c_bands before calling an iterative solver
           372 MiB given to the printing process from OS
             0 MiB allocation reported by mallinfo(arena+hblkhd)
        245288 MiB available memory on the node where the printing process lives
------------------
     ethr =  1.28E-12,  avg # of iterations =  2.0

     negative rho (up, down):  5.453E-06 0.000E+00

     total cpu time spent up to now is      419.2 secs

     End of self-consistent calculation

          k = 0.0000 0.0000 0.0000 (138771 PWs)   bands (ev):

   -29.3994 -28.9039 -20.1854 -12.8246  -9.8441  -8.0996  -8.0996  -6.9233
    -6.9233  -3.9508  -3.9508  -0.8076   3.4097   3.4097   3.5911

     occupation numbers 
     1.0000   1.0000   1.0000   1.0000   1.0000   1.0000   1.0000   1.0000
     1.0000   1.0000   1.0000   0.0000   0.0000   0.0000   0.0000

          k = 0.0000 0.1283 0.0000 (138707 PWs)   bands (ev):

   -29.2935 -28.8283 -19.9957 -12.7261  -9.9403  -8.8924  -8.3609  -7.1347
    -6.9685  -4.6889  -4.2183  -0.2246   3.4882   3.9613   4.1923

     occupation numbers 
     1.0000   1.0000   1.0000   1.0000   1.0000   1.0000   1.0000   1.0000
     1.0000   1.0000   1.0000   0.0000   0.0000   0.0000   0.0000

          k = 0.0000 0.2566 0.0000 (138608 PWs)   bands (ev):

   -29.0129 -28.6333 -19.4289 -12.5185 -10.8353 -10.0620  -8.9680  -7.6279
    -7.1004  -6.0272  -4.7086   0.6406   3.7108   4.9617   5.3956

     occupation numbers 
     1.0000   1.0000   1.0000   1.0000   1.0000   1.0000   1.0000   1.0000
     1.0000   1.0000   1.0000   0.0000   0.0000   0.0000   0.0000

          k = 0.0000 0.3849 0.0000 (138490 PWs)   bands (ev):

   -28.6656 -28.4090 -18.4904 -13.3484 -11.8019 -10.4617  -9.5833  -8.1021
    -7.2622  -7.1930  -5.0996   1.1721   4.1234   5.8546   7.0511

     occupation numbers 
     1.0000   1.0000   1.0000   1.0000   1.0000   1.0000   1.0000   1.0000
     1.0000   1.0000   1.0000   0.0000   0.0000   0.0000   0.0000

          k = 0.0000 0.5132 0.0000 (138408 PWs)   bands (ev):

   -28.4084 -28.2732 -17.2264 -15.2439 -11.6321 -10.7460  -9.9497  -8.3911
    -7.8383  -7.3698  -5.3049   1.4291   4.5403   5.1428   8.6089

     occupation numbers 
     1.0000   1.0000   1.0000   1.0000   1.0000   1.0000   1.0000   1.0000
     1.0000   1.0000   1.0000   0.0000   0.0000   0.0000   0.0000

          k = 0.1111 0.1924 0.0000 (138655 PWs)   bands (ev):

   -29.1000 -28.6928 -19.6173 -12.5647 -10.1659 -10.0501  -8.9107  -7.3706
    -7.1926  -5.5355  -4.7460   0.5686   3.9667   4.6666   4.7203

     occupation numbers 
     1.0000   1.0000   1.0000   1.0000   1.0000   1.0000   1.0000   1.0000
     1.0000   1.0000   1.0000   0.0000   0.0000   0.0000   0.0000

          k = 0.1111 0.3207 0.0000 (138592 PWs)   bands (ev):

   -28.7847 -28.4818 -18.8631 -12.6222 -11.5416 -10.5486  -9.6318  -7.8418
    -7.4905  -6.5315  -5.3023   1.4992   4.4709   5.8071   6.2564

     occupation numbers 
     1.0000   1.0000   1.0000   1.0000   1.0000   1.0000   1.0000   1.0000
     1.0000   1.0000   1.0000   0.0000   0.0000   0.0000   0.0000

          k = 0.1111 0.4490 0.0000 (138489 PWs)   bands (ev):

   -28.4783 -28.3005 -17.7448 -14.2264 -11.6905 -10.8170 -10.2339  -8.3225
    -7.7182  -7.2436  -5.6121   2.1677   4.7819   5.6246   7.8917

     occupation numbers 
     1.0000   1.0000   1.0000   1.0000   1.0000   1.0000   1.0000   1.0000
     1.0000   1.0000   1.0000   0.0000   0.0000   0.0000   0.0000

          k = 0.1111 0.5773 0.0000 (138378 PWs)   bands (ev):

   -28.3385 -28.2406 -16.6260 -15.6602 -11.6363 -10.7695 -10.5835  -8.5102
    -7.8367  -7.4647  -5.7127   2.4706   5.0016   5.0022   8.2575

     occupation numbers 
     1.0000   1.0000   1.0000   1.0000   1.0000   1.0000   1.0000   1.0000
     1.0000   1.0000   1.0000   0.0000   0.0000   0.0000   0.0000

          k = 0.2222 0.3849 0.0000 (138481 PWs)   bands (ev):

   -28.5073 -28.3115 -17.9227 -13.4668 -11.6275 -11.4809 -10.2565  -8.2762
    -7.8154  -6.9056  -6.0339   2.7412   5.8185   6.5577   6.6836

     occupation numbers 
     1.0000   1.0000   1.0000   1.0000   1.0000   1.0000   1.0000   1.0000
     1.0000   1.0000   1.0000   0.0000   0.0000   0.0000   0.0000

          k = 0.2222 0.5132 0.0000 (138484 PWs)   bands (ev):

   -28.3024 -28.2146 -16.6664 -14.8631 -12.3405 -11.1701 -10.6674  -8.6647
    -7.7345  -7.3810  -6.3909   3.7643   5.3480   6.4896   7.4524

     occupation numbers 
     1.0000   1.0000   1.0000   1.0000   1.0000   1.0000   1.0000   1.0000
     1.0000   1.0000   1.0000   0.0000   0.0000   0.0000   0.0000

          k = 0.3333 0.5773 0.0000 (138462 PWs)   bands (ev):

   -28.2067 -28.2067 -15.5310 -15.5310 -13.1902 -10.9169 -10.9169  -8.8369
    -7.5006  -7.5006  -6.8608   4.8223   4.8223   7.0256   8.4927

     occupation numbers 
     1.0000   1.0000   1.0000   1.0000   1.0000   1.0000   1.0000   1.0000
     1.0000   1.0000   1.0000   0.0000   0.0000   0.0000   0.0000

     the Fermi energy is    -3.2176 ev

!    total energy              =    -120.13430121 Ry
     estimated scf accuracy    <          5.0E-13 Ry
     smearing contrib. (-TS)   =       0.00000000 Ry
     internal energy E=F+TS    =    -120.13430121 Ry

     The total energy is F=E-TS. E is the sum of the following terms:
     one-electron contribution =    -975.15903062 Ry
     hartree contribution      =     493.34114557 Ry
     xc contribution           =     -25.85853007 Ry
     ewald contribution        =     387.54211392 Ry

     convergence has been achieved in   7 iterations

     negative rho (up, down):  5.453E-06 0.000E+00

     Forces acting on atoms (cartesian axes, Ry/au):

     atom    1 type  1   force =     0.00000000   -0.00000000    0.00014754
     atom    2 type  1   force =     0.00000000    0.00000000   -0.00014754
     atom    3 type  2   force =    -0.00000000    0.00000000   -0.00011225
     atom    4 type  2   force =     0.00000000   -0.00000000    0.00011225
     The non-local contrib.  to forces
     atom    1 type  1   force =     0.00000000    0.00000000   -0.39800850
     atom    2 type  1   force =    -0.00000000   -0.00000000    0.39800850
     atom    3 type  2   force =     0.00000000    0.00000000    2.50744694
     atom    4 type  2   force =     0.00000000    0.00000000   -2.50744694
     The ionic contribution  to forces
     atom    1 type  1   force =    -0.00000001    0.00000000   -1.16518813
     atom    2 type  1   force =     0.00000001   -0.00000000    1.16518813
     atom    3 type  2   force =    -0.00000000    0.00000000  -48.74090954
     atom    4 type  2   force =     0.00000000   -0.00000000   48.74090954
     The local contribution  to forces
     atom    1 type  1   force =    -0.00000000    0.00000001    1.56017604
     atom    2 type  1   force =     0.00000001   -0.00000000   -1.56017603
     atom    3 type  2   force =    -0.00000000    0.00000007   46.23335064
     atom    4 type  2   force =     0.00000016   -0.00000003  -46.23335066
     The core correction contribution to forces
     atom    1 type  1   force =    -0.00000000   -0.00000000    0.00316773
     atom    2 type  1   force =    -0.00000000    0.00000000   -0.00316773
     atom    3 type  2   force =     0.00000000    0.00000000    0.00000000
     atom    4 type  2   force =     0.00000000    0.00000000    0.00000000
     The Hubbard contrib.    to forces
     atom    1 type  1   force =     0.00000000    0.00000000    0.00000000
     atom    2 type  1   force =     0.00000000    0.00000000    0.00000000
     atom    3 type  2   force =     0.00000000    0.00000000    0.00000000
     atom    4 type  2   force =     0.00000000    0.00000000    0.00000000
     The SCF correction term to forces
     atom    1 type  1   force =     0.00000000    0.00000000    0.00000041
     atom    2 type  1   force =     0.00000000    0.00000000   -0.00000041
     atom    3 type  2   force =     0.00000000    0.00000000   -0.00000029
     atom    4 type  2   force =     0.00000000    0.00000000    0.00000029

     Total force =     0.000262     Total SCF correction =     0.000001


     Computing stress (Cartesian axis) and pressure


     negative rho (up, down):  5.453E-06 0.000E+00
          total   stress  (Ry/bohr**3)                   (kbar)     P=        0.10
   0.00000073   0.00000000   0.00000000            0.11        0.00        0.00
   0.00000000   0.00000073   0.00000000            0.00        0.11        0.00
  -0.00000000  -0.00000000   0.00000060           -0.00       -0.00        0.09

     kinetic stress (kbar)   6756.14      0.00      0.00
                                0.00   6756.14      0.00
                                0.00      0.00   6005.16

     local   stress (kbar)-188557.19      0.00     -0.00
                                0.00-188557.19      0.00
                               -0.00      0.00 183480.53

     nonloc. stress (kbar)    872.08      0.00      0.00
                                0.00    872.08      0.00
                                0.00      0.00    676.73

     hartree stress (kbar)  94241.07     -0.00     -0.00
                               -0.00  94241.07     -0.00
                               -0.00     -0.00 -89578.02

     exc-cor stress (kbar)  -1583.26     -0.00      0.00
                               -0.00  -1583.26     -0.00
                                0.00     -0.00  -1573.00

     corecor stress (kbar)    -54.54      0.00     -0.00
                                0.00    -54.54      0.00
                               -0.00      0.00    -53.44

     ewald   stress (kbar)  88325.80     -0.00      0.00
                               -0.00  88325.80     -0.00
                                0.00     -0.00 -98957.87

     hubbard stress (kbar)      0.00      0.00      0.00
                                0.00      0.00      0.00
                                0.00      0.00      0.00

     DFT-D   stress (kbar)      0.00      0.00      0.00
                                0.00      0.00      0.00
                                0.00      0.00      0.00

     XDM     stress (kbar)      0.00      0.00      0.00
                                0.00      0.00      0.00
                                0.00      0.00      0.00

     dft-nl  stress (kbar)      0.00      0.00      0.00
                                0.00      0.00      0.00
                                0.00      0.00      0.00

     TS-vdW  stress (kbar)      0.00      0.00      0.00
                                0.00      0.00      0.00
                                0.00      0.00      0.00

     MDB     stress (kbar)      0.00      0.00      0.00
                                0.00      0.00      0.00
                                0.00      0.00      0.00

     3D-RISM stress (kbar)      0.00      0.00      0.00
                                0.00      0.00      0.00
                                0.00      0.00      0.00

     Energy error            =      8.6E-08 Ry
     Gradient error          =      1.5E-04 Ry/Bohr
     Cell gradient error     =      1.1E-01 kbar

     number of scf cycles    =   2
     number of bfgs steps    =   1

     enthalpy           old  =    -120.1343011261 Ry
     enthalpy           new  =    -120.1343012125 Ry

     CASE: enthalpy          _new < enthalpy          _old

     small trust_radius: resetting bfgs history

     new trust radius        =       0.0001000000 bohr
     new conv_thr            =            1.0E-14 Ry

     new unit-cell volume =    733.78918 a.u.^3 (   108.73634 Ang^3 )
     density =      0.94710 g/cm^3

CELL_PARAMETERS (alat=  4.92285192)
   1.000037429  -0.000000000   0.000000000
  -0.500018715   0.866057819   0.000000000
   0.000000000   0.000000000   7.101626824

ATOMIC_POSITIONS (crystal)
C             0.8333333330        0.6666666660       -0.0132148494
C             0.1666666660        0.3333333330        0.0132148494
F             0.8333333330        0.6666666660       -0.0877987513
F             0.1666666660        0.3333333330        0.0877987513



     Writing config-only to output data dir ../tmp/fgc.save/
     NEW-OLD atomic charge density approx. for the potential

     negative rho (up, down):  6.565E-06 0.000E+00
     extrapolated charge   22.00054, renormalised to   22.00000

     total cpu time spent up to now is      449.5 secs

     Self-consistent Calculation

     iteration #  1     ecut=   500.00 Ry     beta= 0.70
     Davidson diagonalization with overlap

---- Real-time Memory Report at c_bands before calling an iterative solver
           372 MiB given to the printing process from OS
             0 MiB allocation reported by mallinfo(arena+hblkhd)
        245265 MiB available memory on the node where the printing process lives
------------------
     ethr =  1.00E-06,  avg # of iterations =  2.0

     Threshold (ethr) on eigenvalues was too large:
     Diagonalizing with lowered threshold

     Davidson diagonalization with overlap

---- Real-time Memory Report at c_bands before calling an iterative solver
           372 MiB given to the printing process from OS
             0 MiB allocation reported by mallinfo(arena+hblkhd)
        244977 MiB available memory on the node where the printing process lives
------------------
     ethr =  7.12E-10,  avg # of iterations =  1.0

     negative rho (up, down):  5.516E-06 0.000E+00

     total cpu time spent up to now is      475.8 secs

     total energy              =    -120.13430102 Ry
     estimated scf accuracy    <       0.00000017 Ry

     iteration #  2     ecut=   500.00 Ry     beta= 0.70
     Davidson diagonalization with overlap

---- Real-time Memory Report at c_bands before calling an iterative solver
           372 MiB given to the printing process from OS
             0 MiB allocation reported by mallinfo(arena+hblkhd)
        245096 MiB available memory on the node where the printing process lives
------------------
     ethr =  7.56E-10,  avg # of iterations =  2.9

     negative rho (up, down):  5.470E-06 0.000E+00

     total cpu time spent up to now is      496.4 secs

     total energy              =    -120.13430123 Ry
     estimated scf accuracy    <       0.00000028 Ry

     iteration #  3     ecut=   500.00 Ry     beta= 0.70
     Davidson diagonalization with overlap

---- Real-time Memory Report at c_bands before calling an iterative solver
           372 MiB given to the printing process from OS
             0 MiB allocation reported by mallinfo(arena+hblkhd)
        245103 MiB available memory on the node where the printing process lives
------------------
     ethr =  7.56E-10,  avg # of iterations =  2.0

     negative rho (up, down):  5.456E-06 0.000E+00

     total cpu time spent up to now is      511.9 secs

     total energy              =    -120.13430125 Ry
     estimated scf accuracy    <       0.00000004 Ry

     iteration #  4     ecut=   500.00 Ry     beta= 0.70
     Davidson diagonalization with overlap

---- Real-time Memory Report at c_bands before calling an iterative solver
           372 MiB given to the printing process from OS
             0 MiB allocation reported by mallinfo(arena+hblkhd)
        245072 MiB available memory on the node where the printing process lives
------------------
     ethr =  1.63E-10,  avg # of iterations =  1.0

     negative rho (up, down):  5.453E-06 0.000E+00

     total cpu time spent up to now is      523.4 secs

     total energy              =    -120.13430124 Ry
     estimated scf accuracy    <       0.00000002 Ry

     iteration #  5     ecut=   500.00 Ry     beta= 0.70
     Davidson diagonalization with overlap

---- Real-time Memory Report at c_bands before calling an iterative solver
           372 MiB given to the printing process from OS
             0 MiB allocation reported by mallinfo(arena+hblkhd)
        245044 MiB available memory on the node where the printing process lives
------------------
     ethr =  8.48E-11,  avg # of iterations =  2.0

     negative rho (up, down):  5.452E-06 0.000E+00

     total cpu time spent up to now is      539.1 secs

     total energy              =    -120.13430125 Ry
     estimated scf accuracy    <          9.3E-10 Ry

     iteration #  6     ecut=   500.00 Ry     beta= 0.70
     Davidson diagonalization with overlap

---- Real-time Memory Report at c_bands before calling an iterative solver
           372 MiB given to the printing process from OS
             0 MiB allocation reported by mallinfo(arena+hblkhd)
        245668 MiB available memory on the node where the printing process lives
------------------
     ethr =  4.23E-12,  avg # of iterations =  2.1

     negative rho (up, down):  5.453E-06 0.000E+00

     total cpu time spent up to now is      556.0 secs

     total energy              =    -120.13430125 Ry
     estimated scf accuracy    <          4.9E-11 Ry

     iteration #  7     ecut=   500.00 Ry     beta= 0.70
     Davidson diagonalization with overlap

---- Real-time Memory Report at c_bands before calling an iterative solver
           372 MiB given to the printing process from OS
             0 MiB allocation reported by mallinfo(arena+hblkhd)
        244617 MiB available memory on the node where the printing process lives
------------------
     ethr =  2.24E-13,  avg # of iterations =  2.0

     negative rho (up, down):  5.453E-06 0.000E+00

     total cpu time spent up to now is      572.4 secs

     total energy              =    -120.13430125 Ry
     estimated scf accuracy    <          4.8E-13 Ry

     iteration #  8     ecut=   500.00 Ry     beta= 0.70
     Davidson diagonalization with overlap

---- Real-time Memory Report at c_bands before calling an iterative solver
           372 MiB given to the printing process from OS
             0 MiB allocation reported by mallinfo(arena+hblkhd)
        244582 MiB available memory on the node where the printing process lives
------------------
     ethr =  1.00E-13,  avg # of iterations =  1.0

     negative rho (up, down):  5.453E-06 0.000E+00

     total cpu time spent up to now is      583.8 secs

     total energy              =    -120.13430125 Ry
     estimated scf accuracy    <          9.1E-13 Ry

     iteration #  9     ecut=   500.00 Ry     beta= 0.70
     Davidson diagonalization with overlap

---- Real-time Memory Report at c_bands before calling an iterative solver
           372 MiB given to the printing process from OS
             0 MiB allocation reported by mallinfo(arena+hblkhd)
        244853 MiB available memory on the node where the printing process lives
------------------
     ethr =  1.00E-13,  avg # of iterations =  1.0

     negative rho (up, down):  5.453E-06 0.000E+00

     total cpu time spent up to now is      595.2 secs

     total energy              =    -120.13430125 Ry
     estimated scf accuracy    <          3.5E-14 Ry

     iteration # 10     ecut=   500.00 Ry     beta= 0.70
     Davidson diagonalization with overlap

---- Real-time Memory Report at c_bands before calling an iterative solver
           373 MiB given to the printing process from OS
             0 MiB allocation reported by mallinfo(arena+hblkhd)
        244822 MiB available memory on the node where the printing process lives
------------------
     ethr =  1.00E-13,  avg # of iterations =  1.0

     negative rho (up, down):  5.453E-06 0.000E+00

     total cpu time spent up to now is      609.5 secs

     End of self-consistent calculation

          k = 0.0000 0.0000 0.0000 (138771 PWs)   bands (ev):

   -29.3987 -28.9031 -20.1863 -12.8245  -9.8435  -8.0997  -8.0997  -6.9230
    -6.9230  -3.9520  -3.9520  -0.8092   3.4086   3.4086   3.5910

     occupation numbers 
     1.0000   1.0000   1.0000   1.0000   1.0000   1.0000   1.0000   1.0000
     1.0000   1.0000   1.0000   0.0000   0.0000   0.0000   0.0000

          k = 0.0000 0.1283 0.0000 (138707 PWs)   bands (ev):

   -29.2928 -28.8275 -19.9966 -12.7259  -9.9398  -8.8926  -8.3610  -7.1344
    -6.9682  -4.6900  -4.2195  -0.2262   3.4872   3.9611   4.1912

     occupation numbers 
     1.0000   1.0000   1.0000   1.0000   1.0000   1.0000   1.0000   1.0000
     1.0000   1.0000   1.0000   0.0000   0.0000   0.0000   0.0000

          k = 0.0000 0.2566 0.0000 (138608 PWs)   bands (ev):

   -29.0122 -28.6326 -19.4297 -12.5184 -10.8356 -10.0616  -8.9683  -7.6277
    -7.1001  -6.0278  -4.7095   0.6388   3.7097   4.9615   5.3954

     occupation numbers 
     1.0000   1.0000   1.0000   1.0000   1.0000   1.0000   1.0000   1.0000
     1.0000   1.0000   1.0000   0.0000   0.0000   0.0000   0.0000

          k = 0.0000 0.3849 0.0000 (138490 PWs)   bands (ev):

   -28.6649 -28.4083 -18.4912 -13.3490 -11.8018 -10.4613  -9.5837  -8.1019
    -7.2619  -7.1933  -5.1005   1.1704   4.1218   5.8534   7.0504

     occupation numbers 
     1.0000   1.0000   1.0000   1.0000   1.0000   1.0000   1.0000   1.0000
     1.0000   1.0000   1.0000   0.0000   0.0000   0.0000   0.0000

          k = 0.0000 0.5132 0.0000 (138408 PWs)   bands (ev):

   -28.4077 -28.2725 -17.2273 -15.2446 -11.6318 -10.7455  -9.9502  -8.3909
    -7.8384  -7.3695  -5.3056   1.4275   4.5385   5.1411   8.6087

     occupation numbers 
     1.0000   1.0000   1.0000   1.0000   1.0000   1.0000   1.0000   1.0000
     1.0000   1.0000   1.0000   0.0000   0.0000   0.0000   0.0000

          k = 0.1111 0.1924 0.0000 (138655 PWs)   bands (ev):

   -29.0993 -28.6920 -19.6182 -12.5645 -10.1654 -10.0505  -8.9110  -7.3703
    -7.1923  -5.5363  -4.7470   0.5669   3.9657   4.6663   4.7198

     occupation numbers 
     1.0000   1.0000   1.0000   1.0000   1.0000   1.0000   1.0000   1.0000
     1.0000   1.0000   1.0000   0.0000   0.0000   0.0000   0.0000

          k = 0.1111 0.3207 0.0000 (138592 PWs)   bands (ev):

   -28.7840 -28.4810 -18.8640 -12.6224 -11.5418 -10.5483  -9.6320  -7.8416
    -7.4903  -6.5319  -5.3030   1.4973   4.4697   5.8065   6.2559

     occupation numbers 
     1.0000   1.0000   1.0000   1.0000   1.0000   1.0000   1.0000   1.0000
     1.0000   1.0000   1.0000   0.0000   0.0000   0.0000   0.0000

          k = 0.1111 0.4490 0.0000 (138489 PWs)   bands (ev):

   -28.4776 -28.2997 -17.7457 -14.2270 -11.6903 -10.8169 -10.2341  -8.3223
    -7.7182  -7.2435  -5.6127   2.1658   4.7803   5.6229   7.8915

     occupation numbers 
     1.0000   1.0000   1.0000   1.0000   1.0000   1.0000   1.0000   1.0000
     1.0000   1.0000   1.0000   0.0000   0.0000   0.0000   0.0000

          k = 0.1111 0.5773 0.0000 (138378 PWs)   bands (ev):

   -28.3378 -28.2399 -16.6269 -15.6609 -11.6361 -10.7691 -10.5839  -8.5100
    -7.8368  -7.4645  -5.7133   2.4688   4.9999   5.0004   8.2573

     occupation numbers 
     1.0000   1.0000   1.0000   1.0000   1.0000   1.0000   1.0000   1.0000
     1.0000   1.0000   1.0000   0.0000   0.0000   0.0000   0.0000

          k = 0.2222 0.3849 0.0000 (138481 PWs)   bands (ev):

   -28.5066 -28.3108 -17.9236 -13.4674 -11.6278 -11.4808 -10.2563  -8.2759
    -7.8153  -6.9057  -6.0344   2.7390   5.8171   6.5560   6.6825

     occupation numbers 
     1.0000   1.0000   1.0000   1.0000   1.0000   1.0000   1.0000   1.0000
     1.0000   1.0000   1.0000   0.0000   0.0000   0.0000   0.0000

          k = 0.2222 0.5132 0.0000 (138484 PWs)   bands (ev):

   -28.3017 -28.2139 -16.6672 -14.8638 -12.3409 -11.1699 -10.6671  -8.6644
    -7.7345  -7.3810  -6.3913   3.7620   5.3459   6.4883   7.4523

     occupation numbers 
     1.0000   1.0000   1.0000   1.0000   1.0000   1.0000   1.0000   1.0000
     1.0000   1.0000   1.0000   0.0000   0.0000   0.0000   0.0000

          k = 0.3333 0.5773 0.0000 (138462 PWs)   bands (ev):

   -28.2059 -28.2059 -15.5318 -15.5318 -13.1908 -10.9166 -10.9166  -8.8365
    -7.5006  -7.5006  -6.8611   4.8198   4.8198   7.0257   8.4916

     occupation numbers 
     1.0000   1.0000   1.0000   1.0000   1.0000   1.0000   1.0000   1.0000
     1.0000   1.0000   1.0000   0.0000   0.0000   0.0000   0.0000

     the Fermi energy is    -3.2176 ev

!    total energy              =    -120.13430125 Ry
     estimated scf accuracy    <          1.3E-15 Ry
     smearing contrib. (-TS)   =       0.00000000 Ry
     internal energy E=F+TS    =    -120.13430125 Ry

     The total energy is F=E-TS. E is the sum of the following terms:
     one-electron contribution =    -975.12302422 Ry
     hartree contribution      =     493.32300773 Ry
     xc contribution           =     -25.85836261 Ry
     ewald contribution        =     387.52407786 Ry

     convergence has been achieved in  10 iterations

     negative rho (up, down):  5.453E-06 0.000E+00

     Forces acting on atoms (cartesian axes, Ry/au):

     atom    1 type  1   force =     0.00000000    0.00000000   -0.00002207
     atom    2 type  1   force =    -0.00000000   -0.00000000    0.00002207
     atom    3 type  2   force =     0.00000000   -0.00000000   -0.00001321
     atom    4 type  2   force =     0.00000000    0.00000000    0.00001321
     The non-local contrib.  to forces
     atom    1 type  1   force =    -0.00000000   -0.00000000   -0.39799250
     atom    2 type  1   force =     0.00000000    0.00000000    0.39799250
     atom    3 type  2   force =     0.00000000    0.00000000    2.50713067
     atom    4 type  2   force =     0.00000000    0.00000000   -2.50713067
     The ionic contribution  to forces
     atom    1 type  1   force =    -0.00000001    0.00000000   -1.16501635
     atom    2 type  1   force =     0.00000001   -0.00000000    1.16501635
     atom    3 type  2   force =    -0.00000000    0.00000000  -48.73875315
     atom    4 type  2   force =     0.00000000   -0.00000000   48.73875315
     The local contribution  to forces
     atom    1 type  1   force =    -0.00000000    0.00000001    1.55981830
     atom    2 type  1   force =     0.00000001   -0.00000000   -1.55981829
     atom    3 type  2   force =    -0.00000000    0.00000007   46.23160938
     atom    4 type  2   force =     0.00000016   -0.00000003  -46.23160939
     The core correction contribution to forces
     atom    1 type  1   force =    -0.00000000   -0.00000000    0.00316850
     atom    2 type  1   force =    -0.00000000    0.00000000   -0.00316850
     atom    3 type  2   force =     0.00000000    0.00000000    0.00000000
     atom    4 type  2   force =     0.00000000    0.00000000    0.00000000
     The Hubbard contrib.    to forces
     atom    1 type  1   force =     0.00000000    0.00000000    0.00000000
     atom    2 type  1   force =     0.00000000    0.00000000    0.00000000
     atom    3 type  2   force =     0.00000000    0.00000000    0.00000000
     atom    4 type  2   force =     0.00000000    0.00000000    0.00000000
     The SCF correction term to forces
     atom    1 type  1   force =    -0.00000000   -0.00000000   -0.00000002
     atom    2 type  1   force =     0.00000000    0.00000000    0.00000002
     atom    3 type  2   force =     0.00000000    0.00000000   -0.00000012
     atom    4 type  2   force =    -0.00000000   -0.00000000    0.00000012

     Total force =     0.000036     Total SCF correction =     0.000000


     Computing stress (Cartesian axis) and pressure


     negative rho (up, down):  5.453E-06 0.000E+00
          total   stress  (Ry/bohr**3)                   (kbar)     P=        0.06
   0.00000062  -0.00000000  -0.00000000            0.09       -0.00       -0.00
  -0.00000000   0.00000062  -0.00000000           -0.00        0.09       -0.00
   0.00000000   0.00000000   0.00000000            0.00        0.00        0.00

     kinetic stress (kbar)   6755.89     -0.00      0.00
                               -0.00   6755.89      0.00
                                0.00      0.00   6004.98

     local   stress (kbar)-188545.54      0.00     -0.00
                                0.00-188545.54      0.00
                               -0.00      0.00 183469.24

     nonloc. stress (kbar)    872.07      0.00     -0.00
                                0.00    872.07     -0.00
                               -0.00     -0.00    676.75

     hartree stress (kbar)  94235.15     -0.00      0.00
                               -0.00  94235.15     -0.00
                                0.00     -0.00 -89572.25

     exc-cor stress (kbar)  -1583.21     -0.00      0.00
                               -0.00  -1583.21     -0.00
                                0.00     -0.00  -1572.96

     corecor stress (kbar)    -54.53      0.00     -0.00
                                0.00    -54.53      0.00
                               -0.00      0.00    -53.44

     ewald   stress (kbar)  88320.26     -0.00      0.00
                               -0.00  88320.26     -0.00
                                0.00     -0.00 -98952.32

     hubbard stress (kbar)      0.00      0.00      0.00
                                0.00      0.00      0.00
                                0.00      0.00      0.00

     DFT-D   stress (kbar)      0.00      0.00      0.00
                                0.00      0.00      0.00
                                0.00      0.00      0.00

     XDM     stress (kbar)      0.00      0.00      0.00
                                0.00      0.00      0.00
                                0.00      0.00      0.00

     dft-nl  stress (kbar)      0.00      0.00      0.00
                                0.00      0.00      0.00
                                0.00      0.00      0.00

     TS-vdW  stress (kbar)      0.00      0.00      0.00
                                0.00      0.00      0.00
                                0.00      0.00      0.00

     MDB     stress (kbar)      0.00      0.00      0.00
                                0.00      0.00      0.00
                                0.00      0.00      0.00

     3D-RISM stress (kbar)      0.00      0.00      0.00
                                0.00      0.00      0.00
                                0.00      0.00      0.00

     Energy error            =      3.4E-08 Ry
     Gradient error          =      2.2E-05 Ry/Bohr
     Cell gradient error     =      9.0E-02 kbar

     number of scf cycles    =   3
     number of bfgs steps    =   2

     enthalpy           old  =    -120.1343012125 Ry
     enthalpy           new  =    -120.1343012466 Ry

     CASE: enthalpy          _new < enthalpy          _old

     new trust radius        =       0.0001125451 bohr
     new conv_thr            =            1.0E-14 Ry

     new unit-cell volume =    733.81967 a.u.^3 (   108.74086 Ang^3 )
     density =      0.94706 g/cm^3

CELL_PARAMETERS (alat=  4.92285192)
   1.000058204  -0.000000000   0.000000000
  -0.500029102   0.866075810   0.000000000
   0.000000000   0.000000000   7.101626824

ATOMIC_POSITIONS (crystal)
C             0.8333333330        0.6666666660       -0.0132149458
C             0.1666666660        0.3333333330        0.0132149458
F             0.8333333330        0.6666666660       -0.0877996828
F             0.1666666660        0.3333333330        0.0877996828



     Writing config-only to output data dir ../tmp/fgc.save/
     NEW-OLD atomic charge density approx. for the potential

     negative rho (up, down):  5.918E-06 0.000E+00
     extrapolated charge   22.00091, renormalised to   22.00000

     total cpu time spent up to now is      640.0 secs

     Self-consistent Calculation

     iteration #  1     ecut=   500.00 Ry     beta= 0.70
     Davidson diagonalization with overlap

---- Real-time Memory Report at c_bands before calling an iterative solver
           373 MiB given to the printing process from OS
             0 MiB allocation reported by mallinfo(arena+hblkhd)
        245332 MiB available memory on the node where the printing process lives
------------------
     ethr =  1.00E-06,  avg # of iterations =  2.0

     Threshold (ethr) on eigenvalues was too large:
     Diagonalizing with lowered threshold

     Davidson diagonalization with overlap

---- Real-time Memory Report at c_bands before calling an iterative solver
           373 MiB given to the printing process from OS
             0 MiB allocation reported by mallinfo(arena+hblkhd)
        245966 MiB available memory on the node where the printing process lives
------------------
     ethr =  1.41E-09,  avg # of iterations =  1.0

     negative rho (up, down):  5.540E-06 0.000E+00

     total cpu time spent up to now is      665.7 secs

     total energy              =    -120.13430074 Ry
     estimated scf accuracy    <       0.00000033 Ry

     iteration #  2     ecut=   500.00 Ry     beta= 0.70
     Davidson diagonalization with overlap

---- Real-time Memory Report at c_bands before calling an iterative solver
           373 MiB given to the printing process from OS
             0 MiB allocation reported by mallinfo(arena+hblkhd)
        244788 MiB available memory on the node where the printing process lives
------------------
     ethr =  1.48E-09,  avg # of iterations =  3.2

     negative rho (up, down):  5.512E-06 0.000E+00

     total cpu time spent up to now is      685.6 secs

     total energy              =    -120.13430125 Ry
     estimated scf accuracy    <       0.00000066 Ry

     iteration #  3     ecut=   500.00 Ry     beta= 0.70
     Davidson diagonalization with overlap

---- Real-time Memory Report at c_bands before calling an iterative solver
           373 MiB given to the printing process from OS
             0 MiB allocation reported by mallinfo(arena+hblkhd)
        244751 MiB available memory on the node where the printing process lives
------------------
     ethr =  1.48E-09,  avg # of iterations =  2.0

     negative rho (up, down):  5.500E-06 0.000E+00

     total cpu time spent up to now is      701.5 secs

     total energy              =    -120.13430129 Ry
     estimated scf accuracy    <       0.00000011 Ry

     iteration #  4     ecut=   500.00 Ry     beta= 0.70
     Davidson diagonalization with overlap

---- Real-time Memory Report at c_bands before calling an iterative solver
           373 MiB given to the printing process from OS
             0 MiB allocation reported by mallinfo(arena+hblkhd)
        244719 MiB available memory on the node where the printing process lives
------------------
     ethr =  4.81E-10,  avg # of iterations =  1.0

     negative rho (up, down):  5.485E-06 0.000E+00

     total cpu time spent up to now is      715.7 secs

     total energy              =    -120.13430127 Ry
     estimated scf accuracy    <       0.00000006 Ry

     iteration #  5     ecut=   500.00 Ry     beta= 0.70
     Davidson diagonalization with overlap

---- Real-time Memory Report at c_bands before calling an iterative solver
           373 MiB given to the printing process from OS
             0 MiB allocation reported by mallinfo(arena+hblkhd)
        245041 MiB available memory on the node where the printing process lives
------------------
     ethr =  2.82E-10,  avg # of iterations =  1.0

     negative rho (up, down):  5.462E-06 0.000E+00

     total cpu time spent up to now is      727.7 secs

     total energy              =    -120.13430126 Ry
     estimated scf accuracy    <       0.00000003 Ry

     iteration #  6     ecut=   500.00 Ry     beta= 0.70
     Davidson diagonalization with overlap

---- Real-time Memory Report at c_bands before calling an iterative solver
           373 MiB given to the printing process from OS
             0 MiB allocation reported by mallinfo(arena+hblkhd)
        244654 MiB available memory on the node where the printing process lives
------------------
     ethr =  1.21E-10,  avg # of iterations =  2.0

     negative rho (up, down):  5.453E-06 0.000E+00

     total cpu time spent up to now is      742.3 secs

     total energy              =    -120.13430126 Ry
     estimated scf accuracy    <          1.9E-09 Ry

     iteration #  7     ecut=   500.00 Ry     beta= 0.70
     Davidson diagonalization with overlap

---- Real-time Memory Report at c_bands before calling an iterative solver
           373 MiB given to the printing process from OS
             0 MiB allocation reported by mallinfo(arena+hblkhd)
        245277 MiB available memory on the node where the printing process lives
------------------
     ethr =  8.66E-12,  avg # of iterations =  2.3

     negative rho (up, down):  5.453E-06 0.000E+00

     total cpu time spent up to now is      758.8 secs

     total energy              =    -120.13430126 Ry
     estimated scf accuracy    <          2.7E-11 Ry

     iteration #  8     ecut=   500.00 Ry     beta= 0.70
     Davidson diagonalization with overlap

---- Real-time Memory Report at c_bands before calling an iterative solver
           373 MiB given to the printing process from OS
             0 MiB allocation reported by mallinfo(arena+hblkhd)
        245549 MiB available memory on the node where the printing process lives
------------------
     ethr =  1.24E-13,  avg # of iterations =  3.8

     negative rho (up, down):  5.452E-06 0.000E+00

     total cpu time spent up to now is      778.6 secs

     total energy              =    -120.13430126 Ry
     estimated scf accuracy    <          2.6E-12 Ry

     iteration #  9     ecut=   500.00 Ry     beta= 0.70
     Davidson diagonalization with overlap

---- Real-time Memory Report at c_bands before calling an iterative solver
           373 MiB given to the printing process from OS
             0 MiB allocation reported by mallinfo(arena+hblkhd)
        244913 MiB available memory on the node where the printing process lives
------------------
     ethr =  1.00E-13,  avg # of iterations =  1.0

     negative rho (up, down):  5.452E-06 0.000E+00

     total cpu time spent up to now is      790.6 secs

     total energy              =    -120.13430126 Ry
     estimated scf accuracy    <          4.4E-13 Ry

     iteration # 10     ecut=   500.00 Ry     beta= 0.70
     Davidson diagonalization with overlap

---- Real-time Memory Report at c_bands before calling an iterative solver
           373 MiB given to the printing process from OS
             0 MiB allocation reported by mallinfo(arena+hblkhd)
        244533 MiB available memory on the node where the printing process lives
------------------
     ethr =  1.00E-13,  avg # of iterations =  1.0

     negative rho (up, down):  5.452E-06 0.000E+00

     total cpu time spent up to now is      802.2 secs

     total energy              =    -120.13430126 Ry
     estimated scf accuracy    <          6.2E-14 Ry

     iteration # 11     ecut=   500.00 Ry     beta= 0.70
     Davidson diagonalization with overlap

---- Real-time Memory Report at c_bands before calling an iterative solver
           373 MiB given to the printing process from OS
             0 MiB allocation reported by mallinfo(arena+hblkhd)
        244890 MiB available memory on the node where the printing process lives
------------------
     ethr =  1.00E-13,  avg # of iterations =  1.0

     negative rho (up, down):  5.452E-06 0.000E+00

     total cpu time spent up to now is      815.1 secs

     total energy              =    -120.13430126 Ry
     estimated scf accuracy    <          2.9E-14 Ry

     iteration # 12     ecut=   500.00 Ry     beta= 0.70
     Davidson diagonalization with overlap

---- Real-time Memory Report at c_bands before calling an iterative solver
           373 MiB given to the printing process from OS
             0 MiB allocation reported by mallinfo(arena+hblkhd)
        244888 MiB available memory on the node where the printing process lives
------------------
     ethr =  1.00E-13,  avg # of iterations =  1.0

     negative rho (up, down):  5.452E-06 0.000E+00

     total cpu time spent up to now is      827.0 secs

     End of self-consistent calculation

          k = 0.0000 0.0000 0.0000 (138771 PWs)   bands (ev):

   -29.3985 -28.9030 -20.1861 -12.8245  -9.8436  -8.0999  -8.0999  -6.9232
    -6.9232  -3.9523  -3.9523  -0.8095   3.4081   3.4081   3.5908

     occupation numbers 
     1.0000   1.0000   1.0000   1.0000   1.0000   1.0000   1.0000   1.0000
     1.0000   1.0000   1.0000   0.0000   0.0000   0.0000   0.0000

          k = 0.0000 0.1283 0.0000 (138707 PWs)   bands (ev):

   -29.2926 -28.8275 -19.9964 -12.7259  -9.9399  -8.8928  -8.3612  -7.1346
[...]
     estimated scf accuracy    <       0.01468246 Ry

     iteration #  4     ecut=   500.00 Ry     beta= 0.70
     Davidson diagonalization with overlap

---- Real-time Memory Report at c_bands before calling an iterative solver
           373 MiB given to the printing process from OS
             0 MiB allocation reported by mallinfo(arena+hblkhd)
        245119 MiB available memory on the node where the printing process lives
------------------
     ethr =  6.67E-05,  avg # of iterations =  3.1

     negative rho (up, down):  1.028E-05 0.000E+00

     total cpu time spent up to now is     1214.0 secs

     total energy              =    -120.13426021 Ry
     estimated scf accuracy    <       0.00012454 Ry

     iteration #  5     ecut=   500.00 Ry     beta= 0.70
     Davidson diagonalization with overlap

---- Real-time Memory Report at c_bands before calling an iterative solver
           373 MiB given to the printing process from OS
             0 MiB allocation reported by mallinfo(arena+hblkhd)
        244732 MiB available memory on the node where the printing process lives
------------------
     ethr =  5.66E-07,  avg # of iterations =  6.5

     negative rho (up, down):  5.505E-06 0.000E+00

     total cpu time spent up to now is     1245.7 secs

     total energy              =    -120.13430011 Ry
     estimated scf accuracy    <       0.00000801 Ry

     iteration #  6     ecut=   500.00 Ry     beta= 0.70
     Davidson diagonalization with overlap

---- Real-time Memory Report at c_bands before calling an iterative solver
           373 MiB given to the printing process from OS
             0 MiB allocation reported by mallinfo(arena+hblkhd)
        244703 MiB available memory on the node where the printing process lives
------------------
     ethr =  3.64E-08,  avg # of iterations =  2.0

     negative rho (up, down):  5.451E-06 0.000E+00

     total cpu time spent up to now is     1260.8 secs

     total energy              =    -120.13430121 Ry
     estimated scf accuracy    <       0.00000020 Ry

     iteration #  7     ecut=   500.00 Ry     beta= 0.70
     Davidson diagonalization with overlap

---- Real-time Memory Report at c_bands before calling an iterative solver
           373 MiB given to the printing process from OS
             0 MiB allocation reported by mallinfo(arena+hblkhd)
        244978 MiB available memory on the node where the printing process lives
------------------
     ethr =  9.02E-10,  avg # of iterations =  2.6

     negative rho (up, down):  5.451E-06 0.000E+00

     total cpu time spent up to now is     1278.0 secs

     total energy              =    -120.13430128 Ry
     estimated scf accuracy    <       0.00000004 Ry

     iteration #  8     ecut=   500.00 Ry     beta= 0.70
     Davidson diagonalization with overlap

---- Real-time Memory Report at c_bands before calling an iterative solver
           373 MiB given to the printing process from OS
             0 MiB allocation reported by mallinfo(arena+hblkhd)
        245248 MiB available memory on the node where the printing process lives
------------------
     ethr =  1.82E-10,  avg # of iterations =  2.0

     negative rho (up, down):  5.456E-06 0.000E+00

     total cpu time spent up to now is     1296.5 secs

     total energy              =    -120.13430129 Ry
     estimated scf accuracy    <          6.4E-10 Ry

     iteration #  9     ecut=   500.00 Ry     beta= 0.70
     Davidson diagonalization with overlap

---- Real-time Memory Report at c_bands before calling an iterative solver
           373 MiB given to the printing process from OS
             0 MiB allocation reported by mallinfo(arena+hblkhd)
        244956 MiB available memory on the node where the printing process lives
------------------
     ethr =  2.93E-12,  avg # of iterations =  2.8

     negative rho (up, down):  5.456E-06 0.000E+00

     total cpu time spent up to now is     1315.4 secs

     total energy              =    -120.13430129 Ry
     estimated scf accuracy    <          3.9E-12 Ry

     iteration # 10     ecut=   500.00 Ry     beta= 0.70
     Davidson diagonalization with overlap

---- Real-time Memory Report at c_bands before calling an iterative solver
           373 MiB given to the printing process from OS
             0 MiB allocation reported by mallinfo(arena+hblkhd)
        244914 MiB available memory on the node where the printing process lives
------------------
     ethr =  1.00E-13,  avg # of iterations =  2.8

     negative rho (up, down):  5.457E-06 0.000E+00

     total cpu time spent up to now is     1334.8 secs

     total energy              =    -120.13430129 Ry
     estimated scf accuracy    <          2.5E-13 Ry

     iteration # 11     ecut=   500.00 Ry     beta= 0.70
     Davidson diagonalization with overlap

---- Real-time Memory Report at c_bands before calling an iterative solver
           373 MiB given to the printing process from OS
             0 MiB allocation reported by mallinfo(arena+hblkhd)
        245265 MiB available memory on the node where the printing process lives
------------------
     ethr =  1.00E-13,  avg # of iterations =  1.0

     negative rho (up, down):  5.457E-06 0.000E+00

     total cpu time spent up to now is     1346.7 secs

     total energy              =    -120.13430129 Ry
     estimated scf accuracy    <          4.7E-14 Ry

     iteration # 12     ecut=   500.00 Ry     beta= 0.70
     Davidson diagonalization with overlap

---- Real-time Memory Report at c_bands before calling an iterative solver
           373 MiB given to the printing process from OS
             0 MiB allocation reported by mallinfo(arena+hblkhd)
        244877 MiB available memory on the node where the printing process lives
------------------
     ethr =  1.00E-13,  avg # of iterations =  1.0

     negative rho (up, down):  5.457E-06 0.000E+00

     total cpu time spent up to now is     1358.3 secs

     End of self-consistent calculation

          k = 0.0000 0.0000 0.0000 (138795 PWs)   bands (ev):

   -29.3985 -28.9031 -20.1857 -12.8245  -9.8438  -8.1001  -8.1001  -6.9236
    -6.9236  -3.9525  -3.9525  -0.8095   3.4077   3.4077   3.5907

     occupation numbers 
     1.0000   1.0000   1.0000   1.0000   1.0000   1.0000   1.0000   1.0000
     1.0000   1.0000   1.0000   0.0000   0.0000   0.0000   0.0000

          k = 0.0000 0.1283 0.0000 (138715 PWs)   bands (ev):

   -29.2926 -28.8275 -19.9961 -12.7260  -9.9400  -8.8929  -8.3614  -7.1348
    -6.9687  -4.6904  -4.2199  -0.2266   3.4863   3.9607   4.1902

     occupation numbers 
     1.0000   1.0000   1.0000   1.0000   1.0000   1.0000   1.0000   1.0000
     1.0000   1.0000   1.0000   0.0000   0.0000   0.0000   0.0000

          k = 0.0000 0.2566 0.0000 (138628 PWs)   bands (ev):

   -29.0121 -28.6326 -19.4293 -12.5185 -10.8356 -10.0618  -8.9685  -7.6280
    -7.1005  -6.0281  -4.7099   0.6384   3.7086   4.9611   5.3949

     occupation numbers 
     1.0000   1.0000   1.0000   1.0000   1.0000   1.0000   1.0000   1.0000
     1.0000   1.0000   1.0000   0.0000   0.0000   0.0000   0.0000

          k = 0.0000 0.3849 0.0000 (138514 PWs)   bands (ev):

   -28.6650 -28.4084 -18.4908 -13.3489 -11.8018 -10.4614  -9.5838  -8.1021
    -7.2623  -7.1934  -5.1008   1.1699   4.1206   5.8527   7.0492

     occupation numbers 
     1.0000   1.0000   1.0000   1.0000   1.0000   1.0000   1.0000   1.0000
     1.0000   1.0000   1.0000   0.0000   0.0000   0.0000   0.0000

          k = 0.0000 0.5132 0.0000 (138448 PWs)   bands (ev):

   -28.4078 -28.2727 -17.2270 -15.2442 -11.6320 -10.7456  -9.9503  -8.3910
    -7.8384  -7.3699  -5.3059   1.4269   4.5374   5.1404   8.6071

     occupation numbers 
     1.0000   1.0000   1.0000   1.0000   1.0000   1.0000   1.0000   1.0000
     1.0000   1.0000   1.0000   0.0000   0.0000   0.0000   0.0000

          k = 0.1111 0.1924 0.0000 (138689 PWs)   bands (ev):

   -29.0992 -28.6921 -19.6177 -12.5646 -10.1656 -10.0506  -8.9112  -7.3707
    -7.1927  -5.5366  -4.7473   0.5664   3.9647   4.6659   4.7189

     occupation numbers 
     1.0000   1.0000   1.0000   1.0000   1.0000   1.0000   1.0000   1.0000
     1.0000   1.0000   1.0000   0.0000   0.0000   0.0000   0.0000

          k = 0.1111 0.3207 0.0000 (138626 PWs)   bands (ev):

   -28.7840 -28.4811 -18.8635 -12.6226 -11.5417 -10.5485  -9.6322  -7.8418
    -7.4907  -6.5322  -5.3033   1.4969   4.4685   5.8058   6.2552

     occupation numbers 
     1.0000   1.0000   1.0000   1.0000   1.0000   1.0000   1.0000   1.0000
     1.0000   1.0000   1.0000   0.0000   0.0000   0.0000   0.0000

          k = 0.1111 0.4490 0.0000 (138517 PWs)   bands (ev):

   -28.4777 -28.2999 -17.7453 -14.2268 -11.6904 -10.8169 -10.2341  -8.3224
    -7.7184  -7.2438  -5.6130   2.1653   4.7790   5.6221   7.8902

     occupation numbers 
     1.0000   1.0000   1.0000   1.0000   1.0000   1.0000   1.0000   1.0000
     1.0000   1.0000   1.0000   0.0000   0.0000   0.0000   0.0000

          k = 0.1111 0.5773 0.0000 (138394 PWs)   bands (ev):

   -28.3379 -28.2401 -16.6267 -15.6605 -11.6362 -10.7692 -10.5839  -8.5101
    -7.8369  -7.4648  -5.7136   2.4681   4.9991   4.9992   8.2559

     occupation numbers 
     1.0000   1.0000   1.0000   1.0000   1.0000   1.0000   1.0000   1.0000
     1.0000   1.0000   1.0000   0.0000   0.0000   0.0000   0.0000

          k = 0.2222 0.3849 0.0000 (138485 PWs)   bands (ev):

   -28.5067 -28.3110 -17.9232 -13.4674 -11.6277 -11.4808 -10.2565  -8.2761
    -7.8155  -6.9060  -6.0346   2.7385   5.8161   6.5549   6.6808

     occupation numbers 
     1.0000   1.0000   1.0000   1.0000   1.0000   1.0000   1.0000   1.0000
     1.0000   1.0000   1.0000   0.0000   0.0000   0.0000   0.0000

          k = 0.2222 0.5132 0.0000 (138504 PWs)   bands (ev):

   -28.3019 -28.2141 -16.6670 -14.8636 -12.3407 -11.1700 -10.6672  -8.6645
    -7.7347  -7.3812  -6.3915   3.7614   5.3451   6.4866   7.4512

     occupation numbers 
     1.0000   1.0000   1.0000   1.0000   1.0000   1.0000   1.0000   1.0000
     1.0000   1.0000   1.0000   0.0000   0.0000   0.0000   0.0000

          k = 0.3333 0.5773 0.0000 (138474 PWs)   bands (ev):

   -28.2062 -28.2062 -15.5317 -15.5317 -13.1902 -10.9167 -10.9167  -8.8366
    -7.5008  -7.5008  -6.8612   4.8191   4.8191   7.0248   8.4895

     occupation numbers 
     1.0000   1.0000   1.0000   1.0000   1.0000   1.0000   1.0000   1.0000
     1.0000   1.0000   1.0000   0.0000   0.0000   0.0000   0.0000

     the Fermi energy is    -3.2186 ev

!    total energy              =    -120.13430129 Ry
     estimated scf accuracy    <          1.1E-15 Ry
     smearing contrib. (-TS)   =       0.00000000 Ry
     internal energy E=F+TS    =    -120.13430129 Ry

     The total energy is F=E-TS. E is the sum of the following terms:
     one-electron contribution =    -975.03797638 Ry
     hartree contribution      =     493.28026810 Ry
     xc contribution           =     -25.85815766 Ry
     ewald contribution        =     387.48156465 Ry

     convergence has been achieved in  12 iterations

     negative rho (up, down):  5.457E-06 0.000E+00

     Forces acting on atoms (cartesian axes, Ry/au):

     atom    1 type  1   force =    -0.00000000   -0.00000000   -0.00001204
     atom    2 type  1   force =     0.00000000    0.00000000    0.00001204
     atom    3 type  2   force =     0.00000000    0.00000000    0.00001760
     atom    4 type  2   force =    -0.00000000   -0.00000000   -0.00001760
     The non-local contrib.  to forces
     atom    1 type  1   force =     0.00000000    0.00000000   -0.39798740
     atom    2 type  1   force =    -0.00000000   -0.00000000    0.39798740
     atom    3 type  2   force =     0.00000000    0.00000000    2.50707605
     atom    4 type  2   force =     0.00000000    0.00000000   -2.50707605
     The ionic contribution  to forces
     atom    1 type  1   force =    -0.00000001    0.00000000   -1.16446702
     atom    2 type  1   force =     0.00000001   -0.00000000    1.16446702
     atom    3 type  2   force =    -0.00000000    0.00000000  -48.73456707
     atom    4 type  2   force =     0.00000000   -0.00000000   48.73456707
     The local contribution  to forces
     atom    1 type  1   force =    -0.00000000    0.00000001    1.55927425
     atom    2 type  1   force =     0.00000001   -0.00000000   -1.55927423
     atom    3 type  2   force =    -0.00000000    0.00000007   46.22750864
     atom    4 type  2   force =     0.00000016   -0.00000003  -46.22750866
     The core correction contribution to forces
     atom    1 type  1   force =    -0.00000000   -0.00000000    0.00316815
     atom    2 type  1   force =    -0.00000000    0.00000000   -0.00316815
     atom    3 type  2   force =     0.00000000    0.00000000    0.00000000
     atom    4 type  2   force =     0.00000000    0.00000000    0.00000000
     The Hubbard contrib.    to forces
     atom    1 type  1   force =     0.00000000    0.00000000    0.00000000
     atom    2 type  1   force =     0.00000000    0.00000000    0.00000000
     atom    3 type  2   force =     0.00000000    0.00000000    0.00000000
     atom    4 type  2   force =     0.00000000    0.00000000    0.00000000
     The SCF correction term to forces
     atom    1 type  1   force =    -0.00000000   -0.00000000   -0.00000000
     atom    2 type  1   force =    -0.00000000    0.00000000    0.00000000
     atom    3 type  2   force =     0.00000000    0.00000000   -0.00000003
     atom    4 type  2   force =    -0.00000000    0.00000000    0.00000003

     Total force =     0.000030     Total SCF correction =     0.000000


     Computing stress (Cartesian axis) and pressure


     negative rho (up, down):  5.457E-06 0.000E+00
          total   stress  (Ry/bohr**3)                   (kbar)     P=        0.01
   0.00000019   0.00000000   0.00000000            0.03        0.00        0.00
   0.00000000   0.00000019   0.00000000            0.00        0.03        0.00
   0.00000000   0.00000000  -0.00000027            0.00        0.00       -0.04

     kinetic stress (kbar)   6755.22      0.00      0.00
                                0.00   6755.22      0.00
                                0.00      0.00   6004.39

     local   stress (kbar)-188511.08      0.00     -0.00
                                0.00-188511.08      0.00
                               -0.00      0.00 183434.31

     nonloc. stress (kbar)    872.00     -0.00     -0.00
                               -0.00    872.00     -0.00
                                0.00      0.00    676.69

     hartree stress (kbar)  94218.05     -0.00      0.00
                               -0.00  94218.05     -0.00
                                0.00     -0.00 -89555.24

     exc-cor stress (kbar)  -1583.06     -0.00      0.00
                               -0.00  -1583.06     -0.00
                                0.00     -0.00  -1572.81

     corecor stress (kbar)    -54.53      0.00     -0.00
                                0.00    -54.53      0.00
                               -0.00      0.00    -53.43

     ewald   stress (kbar)  88303.43     -0.00      0.00
                               -0.00  88303.43     -0.00
                                0.00     -0.00 -98933.96

     hubbard stress (kbar)      0.00      0.00      0.00
                                0.00      0.00      0.00
                                0.00      0.00      0.00

     DFT-D   stress (kbar)      0.00      0.00      0.00
                                0.00      0.00      0.00
                                0.00      0.00      0.00

     XDM     stress (kbar)      0.00      0.00      0.00
                                0.00      0.00      0.00
                                0.00      0.00      0.00

     dft-nl  stress (kbar)      0.00      0.00      0.00
                                0.00      0.00      0.00
                                0.00      0.00      0.00

     TS-vdW  stress (kbar)      0.00      0.00      0.00
                                0.00      0.00      0.00
                                0.00      0.00      0.00

     MDB     stress (kbar)      0.00      0.00      0.00
                                0.00      0.00      0.00
                                0.00      0.00      0.00

     3D-RISM stress (kbar)      0.00      0.00      0.00
                                0.00      0.00      0.00
                                0.00      0.00      0.00


     Writing all to output data dir ../tmp/fgc.save/

     init_run     :     18.03s CPU     22.39s WALL (       2 calls)
     electrons    :    678.36s CPU   1190.84s WALL (       6 calls)
     update_pot   :     33.37s CPU     33.55s WALL (       4 calls)
     forces       :     32.79s CPU     45.24s WALL (       6 calls)
     stress       :     64.31s CPU     82.95s WALL (       6 calls)

     Called by init_run:
     wfcinit      :      4.77s CPU      8.08s WALL (       2 calls)
     wfcinit:atom :      0.03s CPU      0.04s WALL (       4 calls)
     wfcinit:wfcr :      4.52s CPU      7.77s WALL (       4 calls)
     potinit      :      6.42s CPU      6.60s WALL (       2 calls)
     hinit0       :      5.79s CPU      5.86s WALL (       2 calls)

     Called by electrons:
     c_bands      :    528.78s CPU    951.82s WALL (      70 calls)
     sum_band     :     91.09s CPU    152.87s WALL (      70 calls)
     v_of_rho     :     25.12s CPU     26.56s WALL (      71 calls)
     v_h          :      2.15s CPU      2.25s WALL (      71 calls)
     v_xc         :     26.37s CPU     28.13s WALL (      83 calls)
     newd         :     27.44s CPU     53.75s WALL (      71 calls)
     mix_rho      :      4.43s CPU      5.04s WALL (      70 calls)

     Called by c_bands:
     init_us_2    :      2.19s CPU      3.14s WALL (     308 calls)
     init_us_2:cp :      2.19s CPU      3.14s WALL (     308 calls)
     cegterg      :    412.27s CPU    753.71s WALL (     140 calls)

     Called by sum_band:
     sum_band:wei :      0.96s CPU      1.04s WALL (      70 calls)
     sum_band:loo :     54.53s CPU     88.05s WALL (      70 calls)
     sum_band:buf :      0.32s CPU      0.39s WALL (     140 calls)
     sum_band:ini :      1.07s CPU      1.41s WALL (     140 calls)
     sum_band:cal :     20.30s CPU     43.43s WALL (     140 calls)
     sum_band:bec :      0.00s CPU      0.00s WALL (     140 calls)
     addusdens    :     11.45s CPU     31.12s WALL (      70 calls)
     addusd:skk   :      0.04s CPU      0.34s WALL (     140 calls)
     addusd:dgemm :      4.12s CPU     14.45s WALL (     140 calls)
     addusd:qvan2 :      4.42s CPU     12.24s WALL (     140 calls)

     Called by *egterg:
     cdiaghg      :     28.47s CPU     53.51s WALL (     473 calls)
     cegterg:over :     63.06s CPU    105.85s WALL (     351 calls)
     cegterg:upda :      9.16s CPU     20.70s WALL (     351 calls)
     cegterg:last :     10.40s CPU     15.89s WALL (     256 calls)
     h_psi        :    245.18s CPU    449.74s WALL (     495 calls)
     s_psi        :      6.29s CPU      9.90s WALL (     495 calls)
     g_psi        :      0.40s CPU      0.34s WALL (     351 calls)

     Called by h_psi:
     h_psi:calbec :     60.36s CPU    124.26s WALL (     495 calls)
     vloc_psi     :    171.62s CPU    295.43s WALL (     495 calls)
     add_vuspsi   :     12.67s CPU     29.28s WALL (     495 calls)

     General routines
     calbec       :     87.78s CPU    185.80s WALL (     695 calls)
     fft          :     18.24s CPU     20.31s WALL (     940 calls)
     ffts         :      3.73s CPU      3.91s WALL (      70 calls)
     fftw         :    179.95s CPU    306.02s WALL (   12582 calls)

     Parallel routines

     PWSCF        :  13m49.83s CPU  23m 1.20s WALL


   This run was terminated on:  10:22:53  24Feb2024            

=------------------------------------------------------------------------------=
   JOB DONE.
=------------------------------------------------------------------------------=
