
     Program PWSCF v.7.1 starts on 24Feb2024 at  3:37:29 

     This program is part of the open-source Quantum ESPRESSO suite
     for quantum simulation of materials; please cite
         "P. Giannozzi et al., J. Phys.:Condens. Matter 21 395502 (2009);
         "P. Giannozzi et al., J. Phys.:Condens. Matter 29 465901 (2017);
         "P. Giannozzi et al., J. Chem. Phys. 152 154105 (2020);
          URL http://www.quantum-espresso.org", 
     in publications or presentations arising from this work. More details at
     http://www.quantum-espresso.org/quote

     Parallel version (MPI), running on    24 processors

     MPI processes distributed on     1 nodes
     251273 MiB available memory on the printing compute node when the environment starts

     Reading input from ecut.700.in

     Current dimensions of program PWSCF are:
     Max number of different atomic species (ntypx) = 10
     Max number of k-points (npk) =  40000
     Max angular momentum in pseudopotentials (lmaxx) =  4

     K-points division:     npool     =       6
     R & G space division:  proc/nbgrp/npool/nimage =       4
     Subspace diagonalization in iterative solution of the eigenvalue problem:
     a serial algorithm will be used


     Parallelization info
     --------------------
     sticks:   dense  smooth     PW     G-vecs:    dense   smooth      PW
     Min        1168    1168    313               459066   459066   63102
     Max        1169    1169    316               459109   459109   63104
     Sum        4675    4675   1261              1836391  1836391  252411

     Using Slab Decomposition



     bravais-lattice index     =            4
     lattice parameter (alat)  =       4.9229  a.u.
     unit-cell volume          =     733.7343 (a.u.)^3
     number of atoms/cell      =            4
     number of atomic types    =            2
     number of electrons       =        22.00
     number of Kohn-Sham states=           15
     kinetic-energy cutoff     =     700.0000  Ry
     charge density cutoff     =    2800.0000  Ry
     scf convergence threshold =      1.0E-12
     mixing beta               =       0.7000
     number of iterations used =            8  plain     mixing
     Exchange-correlation=  SLA  PW   PBX  PBC
                           (   1   4   3   4   0   0   0)

     celldm(1)=   4.922852  celldm(2)=   0.000000  celldm(3)=   7.101627
     celldm(4)=   0.000000  celldm(5)=   0.000000  celldm(6)=   0.000000

     crystal axes: (cart. coord. in units of alat)
               a(1) = (   1.000000   0.000000   0.000000 )  
               a(2) = (  -0.500000   0.866025   0.000000 )  
               a(3) = (   0.000000   0.000000   7.101627 )  

     reciprocal axes: (cart. coord. in units 2 pi/alat)
               b(1) = (  1.000000  0.577350 -0.000000 )  
               b(2) = (  0.000000  1.154701  0.000000 )  
               b(3) = (  0.000000 -0.000000  0.140813 )  


     PseudoPot. # 1 for C  read from file:
     ../pseudo/c_pbe_v1.2.uspp.F.UPF
     MD5 check sum: d1aef80898a10debaa0f26306b886e00
     Pseudo is Ultrasoft + core correction, Zval =  4.0
     Generated by new atomic code, or converted to UPF format
     Using radial grid of  721 points,  4 beta functions with: 
                l(1) =   0
                l(2) =   0
                l(3) =   1
                l(4) =   1
     Q(r) pseudized with  8 coefficients,  rinner =    1.100   1.100   1.100


     PseudoPot. # 2 for F  read from file:
     ../pseudo/f_pbe_v1.4.uspp.F.UPF
     MD5 check sum: 4c38b6a325caf53ec0e86aed9459de46
     Pseudo is Ultrasoft, Zval =  7.0
     Generated by new atomic code, or converted to UPF format
     Using radial grid of  799 points,  4 beta functions with: 
                l(1) =   0
                l(2) =   0
                l(3) =   1
                l(4) =   1
     Q(r) pseudized with  8 coefficients,  rinner =    0.950   0.950   0.950


     atomic species   valence    mass     pseudopotential
        C              4.00    12.01070     C ( 1.00)
        F              7.00    18.99840     F ( 1.00)

     12 Sym. Ops., with inversion, found ( 8 have fractional translation)


                                    s                        frac. trans.

      isym =  1     identity                                     

 cryst.   s( 1) = (     1          0          0      )
                  (     0          1          0      )
                  (     0          0          1      )

 cart.    s( 1) = (  1.0000000  0.0000000  0.0000000 )
                  (  0.0000000  1.0000000  0.0000000 )
                  (  0.0000000  0.0000000  1.0000000 )


      isym =  2     180 deg rotation - cart. axis [1,0,0]        

 cryst.   s( 2) = (     1          0          0      )
                  (    -1         -1          0      )
                  (     0          0         -1      )

 cart.    s( 2) = (  1.0000000  0.0000000  0.0000000 )
                  (  0.0000000 -1.0000000  0.0000000 )
                  (  0.0000000  0.0000000 -1.0000000 )


      isym =  3     120 deg rotation - cryst. axis [0,0,1]       

 cryst.   s( 3) = (     0          1          0      )    f =( -0.5000000 )
                  (    -1         -1          0      )       ( -0.5000000 )
                  (     0          0          1      )       (  0.0000000 )

 cart.    s( 3) = ( -0.5000000 -0.8660254  0.0000000 )    f =( -0.2500000 )
                  (  0.8660254 -0.5000000  0.0000000 )       ( -0.4330127 )
                  (  0.0000000  0.0000000  1.0000000 )       (  0.0000000 )


      isym =  4     120 deg rotation - cryst. axis [0,0,-1]      

 cryst.   s( 4) = (    -1         -1          0      )    f =(  0.0000000 )
                  (     1          0          0      )       ( -0.5000000 )
                  (     0          0          1      )       (  0.0000000 )

 cart.    s( 4) = ( -0.5000000  0.8660254  0.0000000 )    f =(  0.2500000 )
                  ( -0.8660254 -0.5000000  0.0000000 )       ( -0.4330127 )
                  (  0.0000000  0.0000000  1.0000000 )       (  0.0000000 )


      isym =  5     180 deg rotation - cryst. axis [0,1,0]       

 cryst.   s( 5) = (    -1         -1          0      )    f =(  0.0000000 )
                  (     0          1          0      )       ( -0.5000000 )
                  (     0          0         -1      )       (  0.0000000 )

 cart.    s( 5) = ( -0.5000000 -0.8660254  0.0000000 )    f =(  0.2500000 )
                  ( -0.8660254  0.5000000  0.0000000 )       ( -0.4330127 )
                  (  0.0000000  0.0000000 -1.0000000 )       (  0.0000000 )


      isym =  6     180 deg rotation - cryst. axis [1,1,0]       

 cryst.   s( 6) = (     0          1          0      )    f =(  0.5000000 )
                  (     1          0          0      )       (  0.5000000 )
                  (     0          0         -1      )       (  0.0000000 )

 cart.    s( 6) = ( -0.5000000  0.8660254  0.0000000 )    f =(  0.2500000 )
                  (  0.8660254  0.5000000  0.0000000 )       (  0.4330127 )
                  (  0.0000000  0.0000000 -1.0000000 )       (  0.0000000 )


      isym =  7     inversion                                    

 cryst.   s( 7) = (    -1          0          0      )
                  (     0         -1          0      )
                  (     0          0         -1      )

 cart.    s( 7) = ( -1.0000000  0.0000000  0.0000000 )
                  (  0.0000000 -1.0000000  0.0000000 )
                  (  0.0000000  0.0000000 -1.0000000 )


      isym =  8     inv. 180 deg rotation - cart. axis [1,0,0]   

 cryst.   s( 8) = (    -1          0          0      )
                  (     1          1          0      )
                  (     0          0          1      )

 cart.    s( 8) = ( -1.0000000  0.0000000  0.0000000 )
                  (  0.0000000  1.0000000  0.0000000 )
                  (  0.0000000  0.0000000  1.0000000 )


      isym =  9     inv. 120 deg rotation - cryst. axis [0,0,1]  

 cryst.   s( 9) = (     0         -1          0      )    f =(  0.5000000 )
                  (     1          1          0      )       ( -0.5000000 )
                  (     0          0         -1      )       (  0.0000000 )

 cart.    s( 9) = (  0.5000000  0.8660254  0.0000000 )    f =(  0.7500000 )
                  ( -0.8660254  0.5000000  0.0000000 )       ( -0.4330127 )
                  (  0.0000000  0.0000000 -1.0000000 )       (  0.0000000 )


      isym = 10     inv. 120 deg rotation - cryst. axis [0,0,-1] 

 cryst.   s(10) = (     1          1          0      )    f =(  0.0000000 )
                  (    -1          0          0      )       (  0.5000000 )
                  (     0          0         -1      )       (  0.0000000 )

 cart.    s(10) = (  0.5000000 -0.8660254  0.0000000 )    f =( -0.2500000 )
                  (  0.8660254  0.5000000  0.0000000 )       (  0.4330127 )
                  (  0.0000000  0.0000000 -1.0000000 )       (  0.0000000 )


      isym = 11     inv. 180 deg rotation - cryst. axis [0,1,0]  

 cryst.   s(11) = (     1          1          0      )    f =(  0.0000000 )
                  (     0         -1          0      )       ( -0.5000000 )
                  (     0          0          1      )       (  0.0000000 )

 cart.    s(11) = (  0.5000000  0.8660254  0.0000000 )    f =(  0.2500000 )
                  (  0.8660254 -0.5000000  0.0000000 )       ( -0.4330127 )
                  (  0.0000000  0.0000000  1.0000000 )       (  0.0000000 )


      isym = 12     inv. 180 deg rotation - cryst. axis [1,1,0]  

 cryst.   s(12) = (     0         -1          0      )    f =( -0.5000000 )
                  (    -1          0          0      )       ( -0.5000000 )
                  (     0          0          1      )       (  0.0000000 )

 cart.    s(12) = (  0.5000000 -0.8660254  0.0000000 )    f =( -0.2500000 )
                  ( -0.8660254 -0.5000000  0.0000000 )       ( -0.4330127 )
                  (  0.0000000  0.0000000  1.0000000 )       (  0.0000000 )


     point group D_3d (-3m) 
     there are  6 classes
     the character table:

       E     2C3   3C2'  i     2S6   3s_d 
A_1g   1.00  1.00  1.00  1.00  1.00  1.00
A_2g   1.00  1.00 -1.00  1.00  1.00 -1.00
E_g    2.00 -1.00  0.00  2.00 -1.00  0.00
A_1u   1.00  1.00  1.00 -1.00 -1.00 -1.00
A_2u   1.00  1.00 -1.00 -1.00 -1.00  1.00
E_u    2.00 -1.00  0.00 -2.00  1.00  0.00

     the symmetry operations in each class and the name of the first element:

     E        1
          identity                                               
     2C3      3    4
          120 deg rotation - cryst. axis [0,0,1]                 
     3C2'     2    5    6
          180 deg rotation - cart. axis [1,0,0]                  
     i        7
          inversion                                              
     2S6      9   10
          inv. 120 deg rotation - cryst. axis [0,0,1]            
     3s_d     8   11   12
          inv. 180 deg rotation - cart. axis [1,0,0]             

   Cartesian axes

     site n.     atom                  positions (alat units)
         1           C   tau(   1) = (   0.5000000   0.5773503  -0.0938017  )
         2           C   tau(   2) = (  -0.0000000   0.2886751   0.0938017  )
         3           F   tau(   3) = (   0.5000000   0.5773503  -0.6235043  )
         4           F   tau(   4) = (  -0.0000000   0.2886751   0.6235043  )

   Crystallographic axes

     site n.     atom                  positions (cryst. coord.)
         1           C   tau(   1) = (  0.8333333  0.6666667 -0.0132085  )
         2           C   tau(   2) = (  0.1666667  0.3333333  0.0132085  )
         3           F   tau(   3) = (  0.8333333  0.6666667 -0.0877974  )
         4           F   tau(   4) = (  0.1666667  0.3333333  0.0877974  )

     number of k points=    12  Marzari-Vanderbilt smearing, width (Ry)=  0.0010
                       cart. coord. in units 2pi/alat
        k(    1) = (   0.0000000   0.0000000   0.0000000), wk =   0.0246914
        k(    2) = (   0.0000000   0.1283001   0.0000000), wk =   0.1481481
        k(    3) = (   0.0000000   0.2566001   0.0000000), wk =   0.1481481
        k(    4) = (   0.0000000   0.3849002   0.0000000), wk =   0.1481481
        k(    5) = (   0.0000000   0.5132002   0.0000000), wk =   0.1481481
        k(    6) = (   0.1111111   0.1924501   0.0000000), wk =   0.1481481
        k(    7) = (   0.1111111   0.3207501   0.0000000), wk =   0.2962963
        k(    8) = (   0.1111111   0.4490502   0.0000000), wk =   0.2962963
        k(    9) = (   0.1111111   0.5773503   0.0000000), wk =   0.1481481
        k(   10) = (   0.2222222   0.3849002   0.0000000), wk =   0.1481481
        k(   11) = (   0.2222222   0.5132002   0.0000000), wk =   0.2962963
        k(   12) = (   0.3333333   0.5773503   0.0000000), wk =   0.0493827

                       cryst. coord.
        k(    1) = (   0.0000000   0.0000000   0.0000000), wk =   0.0246914
        k(    2) = (   0.0000000   0.1111111   0.0000000), wk =   0.1481481
        k(    3) = (   0.0000000   0.2222222   0.0000000), wk =   0.1481481
        k(    4) = (   0.0000000   0.3333333   0.0000000), wk =   0.1481481
        k(    5) = (   0.0000000   0.4444444   0.0000000), wk =   0.1481481
        k(    6) = (   0.1111111   0.1111111   0.0000000), wk =   0.1481481
        k(    7) = (   0.1111111   0.2222222   0.0000000), wk =   0.2962963
        k(    8) = (   0.1111111   0.3333333   0.0000000), wk =   0.2962963
        k(    9) = (   0.1111111   0.4444444   0.0000000), wk =   0.1481481
        k(   10) = (   0.2222222   0.2222222   0.0000000), wk =   0.1481481
        k(   11) = (   0.2222222   0.3333333   0.0000000), wk =   0.2962963
        k(   12) = (   0.3333333   0.3333333   0.0000000), wk =   0.0493827

     Dense  grid:  1836391 G-vectors     FFT dimensions: (  90,  90, 600)

     Dynamical RAM for                 wfc:      13.13 MB

     Dynamical RAM for     wfc (w. buffer):      39.39 MB

     Dynamical RAM for           str. fact:      14.01 MB

     Dynamical RAM for           local pot:       0.00 MB

     Dynamical RAM for          nlocal pot:      28.01 MB

     Dynamical RAM for                qrad:       2.42 MB

     Dynamical RAM for          rho,v,vnew:      48.83 MB

     Dynamical RAM for               rhoin:      16.28 MB

     Dynamical RAM for            rho*nmix:     112.09 MB

     Dynamical RAM for           G-vectors:      29.77 MB

     Dynamical RAM for          h,s,v(r/c):       0.04 MB

     Dynamical RAM for          <psi|beta>:       0.01 MB

     Dynamical RAM for                 psi:      26.26 MB

     Dynamical RAM for                hpsi:      26.26 MB

     Dynamical RAM for                spsi:      26.26 MB

     Dynamical RAM for      wfcinit/wfcrot:      28.02 MB

     Dynamical RAM for           addusdens:      58.38 MB

     Dynamical RAM for          addusforce:      58.38 MB

     Dynamical RAM for         addusstress:      61.30 MB

     Estimated static dynamical RAM per process >     246.08 MB

     Estimated max dynamical RAM per process >     437.00 MB

     Estimated total dynamical RAM >       8.05 GB

     Initial potential from superposition of free atoms

     starting charge      21.9999, renormalised to      22.0000

     negative rho (up, down):  4.504E-03 0.000E+00
     Starting wfcs are   16 randomized atomic wfcs

     total cpu time spent up to now is        9.6 secs

     Self-consistent Calculation

     iteration #  1     ecut=   700.00 Ry     beta= 0.70
     Davidson diagonalization with overlap

---- Real-time Memory Report at c_bands before calling an iterative solver
           337 MiB given to the printing process from OS
             0 MiB allocation reported by mallinfo(arena+hblkhd)
        244764 MiB available memory on the node where the printing process lives
------------------
     ethr =  1.00E-02,  avg # of iterations =  4.0

     Threshold (ethr) on eigenvalues was too large:
     Diagonalizing with lowered threshold

     Davidson diagonalization with overlap

---- Real-time Memory Report at c_bands before calling an iterative solver
           369 MiB given to the printing process from OS
             0 MiB allocation reported by mallinfo(arena+hblkhd)
        244010 MiB available memory on the node where the printing process lives
------------------
     ethr =  9.60E-04,  avg # of iterations =  1.9

     negative rho (up, down):  1.276E-03 0.000E+00

     total cpu time spent up to now is       52.5 secs

     total energy              =    -120.08422157 Ry
     estimated scf accuracy    <       0.20834787 Ry

     iteration #  2     ecut=   700.00 Ry     beta= 0.70
     Davidson diagonalization with overlap

---- Real-time Memory Report at c_bands before calling an iterative solver
           482 MiB given to the printing process from OS
             0 MiB allocation reported by mallinfo(arena+hblkhd)
        242074 MiB available memory on the node where the printing process lives
------------------
     ethr =  9.47E-04,  avg # of iterations =  2.2

     negative rho (up, down):  7.068E-04 0.000E+00

     total cpu time spent up to now is       72.1 secs

     total energy              =    -120.10024445 Ry
     estimated scf accuracy    <       0.11152015 Ry

     iteration #  3     ecut=   700.00 Ry     beta= 0.70
     Davidson diagonalization with overlap

---- Real-time Memory Report at c_bands before calling an iterative solver
           497 MiB given to the printing process from OS
             0 MiB allocation reported by mallinfo(arena+hblkhd)
        242291 MiB available memory on the node where the printing process lives
------------------
     ethr =  5.07E-04,  avg # of iterations =  2.8

     negative rho (up, down):  1.510E-04 0.000E+00

     total cpu time spent up to now is      102.7 secs

     total energy              =    -120.13192124 Ry
     estimated scf accuracy    <       0.01411182 Ry

     iteration #  4     ecut=   700.00 Ry     beta= 0.70
     Davidson diagonalization with overlap

---- Real-time Memory Report at c_bands before calling an iterative solver
           511 MiB given to the printing process from OS
             0 MiB allocation reported by mallinfo(arena+hblkhd)
        242276 MiB available memory on the node where the printing process lives
------------------
     ethr =  6.41E-05,  avg # of iterations =  6.5

     negative rho (up, down):  1.817E-05 0.000E+00

     total cpu time spent up to now is      136.0 secs

     total energy              =    -120.13430183 Ry
     estimated scf accuracy    <       0.00012476 Ry

     iteration #  5     ecut=   700.00 Ry     beta= 0.70
     Davidson diagonalization with overlap

---- Real-time Memory Report at c_bands before calling an iterative solver
           525 MiB given to the printing process from OS
             0 MiB allocation reported by mallinfo(arena+hblkhd)
        242158 MiB available memory on the node where the printing process lives
------------------
     ethr =  5.67E-07,  avg # of iterations =  6.2

     negative rho (up, down):  1.551E-06 0.000E+00

     total cpu time spent up to now is      174.4 secs

     total energy              =    -120.13433834 Ry
     estimated scf accuracy    <       0.00000544 Ry

     iteration #  6     ecut=   700.00 Ry     beta= 0.70
     Davidson diagonalization with overlap

---- Real-time Memory Report at c_bands before calling an iterative solver
           539 MiB given to the printing process from OS
             0 MiB allocation reported by mallinfo(arena+hblkhd)
        242045 MiB available memory on the node where the printing process lives
------------------
     ethr =  2.47E-08,  avg # of iterations =  3.4

     negative rho (up, down):  1.596E-06 0.000E+00

     total cpu time spent up to now is      197.7 secs

     total energy              =    -120.13433907 Ry
     estimated scf accuracy    <       0.00000027 Ry

     iteration #  7     ecut=   700.00 Ry     beta= 0.70
     Davidson diagonalization with overlap

---- Real-time Memory Report at c_bands before calling an iterative solver
           553 MiB given to the printing process from OS
             0 MiB allocation reported by mallinfo(arena+hblkhd)
        242648 MiB available memory on the node where the printing process lives
------------------
     ethr =  1.25E-09,  avg # of iterations =  2.2

     negative rho (up, down):  1.590E-06 0.000E+00

     total cpu time spent up to now is      217.8 secs

     total energy              =    -120.13433915 Ry
     estimated scf accuracy    <       0.00000005 Ry

     iteration #  8     ecut=   700.00 Ry     beta= 0.70
     Davidson diagonalization with overlap

---- Real-time Memory Report at c_bands before calling an iterative solver
           567 MiB given to the printing process from OS
             0 MiB allocation reported by mallinfo(arena+hblkhd)
        242950 MiB available memory on the node where the printing process lives
------------------
     ethr =  2.29E-10,  avg # of iterations =  2.0

     negative rho (up, down):  1.584E-06 0.000E+00

     total cpu time spent up to now is      235.8 secs

     total energy              =    -120.13433916 Ry
     estimated scf accuracy    <          5.2E-11 Ry

     iteration #  9     ecut=   700.00 Ry     beta= 0.70
     Davidson diagonalization with overlap

---- Real-time Memory Report at c_bands before calling an iterative solver
           581 MiB given to the printing process from OS
             0 MiB allocation reported by mallinfo(arena+hblkhd)
        243242 MiB available memory on the node where the printing process lives
------------------
     ethr =  2.38E-13,  avg # of iterations =  4.8

     negative rho (up, down):  1.582E-06 0.000E+00

     total cpu time spent up to now is      275.2 secs

     total energy              =    -120.13433916 Ry
     estimated scf accuracy    <          4.8E-11 Ry

     iteration # 10     ecut=   700.00 Ry     beta= 0.70
     Davidson diagonalization with overlap

---- Real-time Memory Report at c_bands before calling an iterative solver
           595 MiB given to the printing process from OS
             0 MiB allocation reported by mallinfo(arena+hblkhd)
        243503 MiB available memory on the node where the printing process lives
------------------
     ethr =  2.19E-13,  avg # of iterations =  2.0

     negative rho (up, down):  1.582E-06 0.000E+00

     total cpu time spent up to now is      294.2 secs

     total energy              =    -120.13433916 Ry
     estimated scf accuracy    <          2.3E-12 Ry

     iteration # 11     ecut=   700.00 Ry     beta= 0.70
     Davidson diagonalization with overlap

---- Real-time Memory Report at c_bands before calling an iterative solver
           595 MiB given to the printing process from OS
             0 MiB allocation reported by mallinfo(arena+hblkhd)
        243547 MiB available memory on the node where the printing process lives
------------------
     ethr =  1.00E-13,  avg # of iterations =  1.0

     negative rho (up, down):  1.581E-06 0.000E+00

     total cpu time spent up to now is      308.7 secs

     End of self-consistent calculation

          k = 0.0000 0.0000 0.0000 (229477 PWs)   bands (ev):

   -29.3982 -28.9023 -20.1881 -12.8243  -9.8425  -8.0997  -8.0997  -6.9220
    -6.9220  -3.9534  -3.9534  -0.8110   3.4083   3.4083   3.6064

     occupation numbers 
     1.0000   1.0000   1.0000   1.0000   1.0000   1.0000   1.0000   1.0000
     1.0000   1.0000   1.0000   0.0000   0.0000   0.0000   0.0000

          k = 0.0000 0.1283 0.0000 (229504 PWs)   bands (ev):

   -29.2922 -28.8267 -19.9984 -12.7257  -9.9388  -8.8930  -8.3612  -7.1335
    -6.9672  -4.6910  -4.2207  -0.2281   3.4875   3.9759   4.1912

     occupation numbers 
     1.0000   1.0000   1.0000   1.0000   1.0000   1.0000   1.0000   1.0000
     1.0000   1.0000   1.0000   0.0000   0.0000   0.0000   0.0000

          k = 0.0000 0.2566 0.0000 (229466 PWs)   bands (ev):

   -29.0115 -28.6316 -19.4316 -12.5181 -10.8364 -10.0610  -8.9689  -7.6269
    -7.0991  -6.0283  -4.7105   0.6369   3.7097   4.9733   5.4060

     occupation numbers 
     1.0000   1.0000   1.0000   1.0000   1.0000   1.0000   1.0000   1.0000
     1.0000   1.0000   1.0000   0.0000   0.0000   0.0000   0.0000

          k = 0.0000 0.3849 0.0000 (229550 PWs)   bands (ev):

   -28.6641 -28.4073 -18.4931 -13.3501 -11.8018 -10.4606  -9.5846  -8.1013
    -7.2610  -7.1935  -5.1013   1.1686   4.1216   5.8537   7.6661

     occupation numbers 
     1.0000   1.0000   1.0000   1.0000   1.0000   1.0000   1.0000   1.0000
     1.0000   1.0000   1.0000   0.0000   0.0000   0.0000   0.0000

          k = 0.0000 0.5132 0.0000 (229532 PWs)   bands (ev):

   -28.4067 -28.2714 -17.2291 -15.2464 -11.6314 -10.7449  -9.9513  -8.3904
    -7.8384  -7.3686  -5.3063   1.4258   4.5380   5.1404   8.6111

     occupation numbers 
     1.0000   1.0000   1.0000   1.0000   1.0000   1.0000   1.0000   1.0000
     1.0000   1.0000   1.0000   0.0000   0.0000   0.0000   0.0000

          k = 0.1111 0.1925 0.0000 (229535 PWs)   bands (ev):

   -29.0987 -28.6911 -19.6201 -12.5642 -10.1645 -10.0514  -8.9114  -7.3695
    -7.1914  -5.5369  -4.7480   0.5649   3.9659   4.6799   4.7241

     occupation numbers 
     1.0000   1.0000   1.0000   1.0000   1.0000   1.0000   1.0000   1.0000
     1.0000   1.0000   1.0000   0.0000   0.0000   0.0000   0.0000

          k = 0.1111 0.3208 0.0000 (229458 PWs)   bands (ev):

   -28.7832 -28.4800 -18.8659 -12.6225 -11.5426 -10.5481  -9.6325  -7.8409
    -7.4896  -6.5320  -5.3037   1.4953   4.4698   5.8115   6.2622

     occupation numbers 
     1.0000   1.0000   1.0000   1.0000   1.0000   1.0000   1.0000   1.0000
     1.0000   1.0000   1.0000   0.0000   0.0000   0.0000   0.0000

          k = 0.1111 0.4491 0.0000 (229495 PWs)   bands (ev):

   -28.4766 -28.2987 -17.7476 -14.2285 -11.6900 -10.8169 -10.2346  -8.3218
    -7.7179  -7.2431  -5.6132   2.1638   4.7803   5.6221   7.8937

     occupation numbers 
     1.0000   1.0000   1.0000   1.0000   1.0000   1.0000   1.0000   1.0000
     1.0000   1.0000   1.0000   0.0000   0.0000   0.0000   0.0000

          k = 0.1111 0.5774 0.0000 (229528 PWs)   bands (ev):

   -28.3368 -28.2388 -16.6286 -15.6629 -11.6358 -10.7685 -10.5850  -8.5095
    -7.8368  -7.4637  -5.7138   2.4668   4.9990   5.0003   8.2593

     occupation numbers 
     1.0000   1.0000   1.0000   1.0000   1.0000   1.0000   1.0000   1.0000
     1.0000   1.0000   1.0000   0.0000   0.0000   0.0000   0.0000

          k = 0.2222 0.3849 0.0000 (229403 PWs)   bands (ev):

   -28.5057 -28.3097 -17.9254 -13.4685 -11.6288 -11.4808 -10.2560  -8.2754
    -7.8147  -6.9055  -6.0348   2.7369   5.8172   6.5547   6.6836

     occupation numbers 
     1.0000   1.0000   1.0000   1.0000   1.0000   1.0000   1.0000   1.0000
     1.0000   1.0000   1.0000   0.0000   0.0000   0.0000   0.0000

          k = 0.2222 0.5132 0.0000 (229446 PWs)   bands (ev):

   -28.3007 -28.2128 -16.6690 -14.8654 -12.3423 -11.1697 -10.6666  -8.6638
    -7.7341  -7.3807  -6.3916   3.7597   5.3444   6.4889   7.4542

     occupation numbers 
     1.0000   1.0000   1.0000   1.0000   1.0000   1.0000   1.0000   1.0000
     1.0000   1.0000   1.0000   0.0000   0.0000   0.0000   0.0000

          k = 0.3333 0.5774 0.0000 (229377 PWs)   bands (ev):

   -28.2049 -28.2049 -15.5334 -15.5334 -13.1927 -10.9161 -10.9161  -8.8360
    -7.5002  -7.5002  -6.8615   4.8177   4.8177   7.0278   8.4926

     occupation numbers 
     1.0000   1.0000   1.0000   1.0000   1.0000   1.0000   1.0000   1.0000
     1.0000   1.0000   1.0000   0.0000   0.0000   0.0000   0.0000

     the Fermi energy is    -3.2158 ev

!    total energy              =    -120.13433916 Ry
     estimated scf accuracy    <          1.2E-13 Ry
     smearing contrib. (-TS)   =       0.00000000 Ry
     internal energy E=F+TS    =    -120.13433916 Ry

     The total energy is F=E-TS. E is the sum of the following terms:
     one-electron contribution =    -975.19919164 Ry
     hartree contribution      =     493.36111474 Ry
     xc contribution           =     -25.85848856 Ry
     ewald contribution        =     387.56222630 Ry

     convergence has been achieved in  11 iterations

     negative rho (up, down):  1.581E-06 0.000E+00

     Forces acting on atoms (cartesian axes, Ry/au):

     atom    1 type  1   force =    -0.00000000   -0.00000000   -0.00032591
     atom    2 type  1   force =     0.00000000    0.00000000    0.00032591
     atom    3 type  2   force =     0.00000000    0.00000000    0.00003108
     atom    4 type  2   force =     0.00000000    0.00000000   -0.00003108
     The non-local contrib.  to forces
     atom    1 type  1   force =     0.00000000    0.00000000   -0.39800001
     atom    2 type  1   force =     0.00000000   -0.00000000    0.39800001
     atom    3 type  2   force =     0.00000000    0.00000000    2.50679950
     atom    4 type  2   force =     0.00000000    0.00000000   -2.50679950
     The ionic contribution  to forces
     atom    1 type  1   force =    -0.00000001    0.00000000   -1.16488099
     atom    2 type  1   force =     0.00000001   -0.00000000    1.16488099
     atom    3 type  2   force =    -0.00000000    0.00000000  -48.74159951
     atom    4 type  2   force =     0.00000000   -0.00000000   48.74159951
     The local contribution  to forces
     atom    1 type  1   force =     0.00000001    0.00000000    1.55938525
     atom    2 type  1   force =     0.00000002   -0.00000001   -1.55938526
     atom    3 type  2   force =     0.00000004    0.00000005   46.23483003
     atom    4 type  2   force =     0.00000021   -0.00000004  -46.23483000
     The core correction contribution to forces
     atom    1 type  1   force =     0.00000000   -0.00000000    0.00316965
     atom    2 type  1   force =    -0.00000000   -0.00000000   -0.00316965
     atom    3 type  2   force =     0.00000000    0.00000000    0.00000000
     atom    4 type  2   force =     0.00000000    0.00000000    0.00000000
     The Hubbard contrib.    to forces
     atom    1 type  1   force =     0.00000000    0.00000000    0.00000000
     atom    2 type  1   force =     0.00000000    0.00000000    0.00000000
     atom    3 type  2   force =     0.00000000    0.00000000    0.00000000
     atom    4 type  2   force =     0.00000000    0.00000000    0.00000000
     The SCF correction term to forces
     atom    1 type  1   force =     0.00000000    0.00000000    0.00000018
     atom    2 type  1   force =     0.00000000   -0.00000000   -0.00000018
     atom    3 type  2   force =     0.00000000   -0.00000000    0.00000107
     atom    4 type  2   force =     0.00000000   -0.00000000   -0.00000107

     Total force =     0.000463     Total SCF correction =     0.000002


     Computing stress (Cartesian axis) and pressure


     negative rho (up, down):  1.581E-06 0.000E+00
          total   stress  (Ry/bohr**3)                   (kbar)     P=        0.11
   0.00000105  -0.00000000  -0.00000000            0.15       -0.00       -0.00
   0.00000000   0.00000105  -0.00000000            0.00        0.15       -0.00
  -0.00000000  -0.00000000   0.00000006           -0.00       -0.00        0.01

     kinetic stress (kbar)   6756.44      0.00      0.00
                                0.00   6756.44     -0.00
                                0.00     -0.00   6005.60

     local   stress (kbar)-188576.46      0.00     -0.00
                                0.00-188576.46      0.00
                               -0.00      0.00 183501.23

     nonloc. stress (kbar)    872.12     -0.00      0.00
                               -0.00    872.12     -0.00
                                0.00     -0.00    676.80

     hartree stress (kbar)  94250.27     -0.00      0.00
                               -0.00  94250.27     -0.00
                                0.00     -0.00 -89587.45

     exc-cor stress (kbar)  -1583.33     -0.00      0.00
                               -0.00  -1583.33     -0.00
                                0.00     -0.00  -1573.09

     corecor stress (kbar)    -54.54      0.00     -0.00
                                0.00    -54.54      0.00
                               -0.00      0.00    -53.44

     ewald   stress (kbar)  88335.65     -0.00      0.00
                               -0.00  88335.65     -0.00
                                0.00     -0.00 -98969.63

     hubbard stress (kbar)      0.00      0.00      0.00
                                0.00      0.00      0.00
                                0.00      0.00      0.00

     DFT-D   stress (kbar)      0.00      0.00      0.00
                                0.00      0.00      0.00
                                0.00      0.00      0.00

     XDM     stress (kbar)      0.00      0.00      0.00
                                0.00      0.00      0.00
                                0.00      0.00      0.00

     dft-nl  stress (kbar)      0.00      0.00      0.00
                                0.00      0.00      0.00
                                0.00      0.00      0.00

     TS-vdW  stress (kbar)      0.00      0.00      0.00
                                0.00      0.00      0.00
                                0.00      0.00      0.00

     MDB     stress (kbar)      0.00      0.00      0.00
                                0.00      0.00      0.00
                                0.00      0.00      0.00

     3D-RISM stress (kbar)      0.00      0.00      0.00
                                0.00      0.00      0.00
                                0.00      0.00      0.00


     Writing all to output data dir ../tmp/fgc.save/

     init_run     :      6.67s CPU      9.33s WALL (       1 calls)
     electrons    :    189.15s CPU    299.53s WALL (       1 calls)
     forces       :      3.83s CPU      6.09s WALL (       1 calls)
     stress       :      7.56s CPU     10.76s WALL (       1 calls)

     Called by init_run:
     wfcinit      :      3.17s CPU      4.80s WALL (       1 calls)
     wfcinit:atom :      0.02s CPU      0.03s WALL (       2 calls)
     wfcinit:wfcr :      3.00s CPU      4.61s WALL (       2 calls)
     potinit      :      1.43s CPU      1.66s WALL (       1 calls)
     hinit0       :      1.26s CPU      1.31s WALL (       1 calls)

     Called by electrons:
     c_bands      :    143.40s CPU    235.68s WALL (      12 calls)
     sum_band     :     22.08s CPU     33.72s WALL (      12 calls)
     v_of_rho     :      8.06s CPU      8.80s WALL (      12 calls)
     v_h          :      0.66s CPU      0.70s WALL (      12 calls)
     v_xc         :      8.49s CPU      9.38s WALL (      14 calls)
     newd         :     14.06s CPU     19.95s WALL (      12 calls)
     mix_rho      :      1.23s CPU      1.56s WALL (      12 calls)

     Called by c_bands:
     init_us_2    :      0.68s CPU      0.94s WALL (      54 calls)
     init_us_2:cp :      0.68s CPU      0.94s WALL (      54 calls)
     cegterg      :    117.07s CPU    194.02s WALL (      24 calls)

     Called by sum_band:
     sum_band:wei :      0.23s CPU      0.24s WALL (      12 calls)
     sum_band:loo :     13.55s CPU     19.63s WALL (      12 calls)
     sum_band:buf :      0.10s CPU      0.15s WALL (      24 calls)
     sum_band:ini :      0.30s CPU      0.41s WALL (      24 calls)
     sum_band:cal :      3.17s CPU      8.01s WALL (      24 calls)
     sum_band:bec :      0.00s CPU      0.00s WALL (      24 calls)
     addusdens    :      2.53s CPU      6.80s WALL (      12 calls)
     addusd:skk   :      0.01s CPU      0.08s WALL (      24 calls)
     addusd:dgemm :      0.90s CPU      3.39s WALL (      24 calls)
     addusd:qvan2 :      0.93s CPU      2.50s WALL (      24 calls)

     Called by *egterg:
     cdiaghg      :      6.94s CPU     11.80s WALL (     120 calls)
     cegterg:over :     17.79s CPU     26.29s WALL (      98 calls)
     cegterg:upda :      3.02s CPU      5.54s WALL (      98 calls)
     cegterg:last :      3.06s CPU      4.00s WALL (      52 calls)
     h_psi        :     73.82s CPU    123.80s WALL (     124 calls)
     s_psi        :      1.93s CPU      2.96s WALL (     124 calls)
     g_psi        :      0.15s CPU      0.11s WALL (      98 calls)

     Called by h_psi:
     h_psi:calbec :     15.32s CPU     30.66s WALL (     124 calls)
     vloc_psi     :     54.51s CPU     84.93s WALL (     124 calls)
     add_vuspsi   :      3.78s CPU      7.91s WALL (     124 calls)

     General routines
     calbec       :     20.15s CPU     42.23s WALL (     158 calls)
     fft          :      6.03s CPU      6.62s WALL (     158 calls)
     ffts         :      1.02s CPU      1.06s WALL (      12 calls)
     fftw         :     53.29s CPU     82.52s WALL (    2360 calls)

     Parallel routines

     PWSCF        :   3m27.62s CPU   5m27.37s WALL


   This run was terminated on:   3:42:57  24Feb2024            

=------------------------------------------------------------------------------=
   JOB DONE.
=------------------------------------------------------------------------------=
