
     Program PWSCF v.7.1 starts on 24Feb2024 at  3:32:47 

     This program is part of the open-source Quantum ESPRESSO suite
     for quantum simulation of materials; please cite
         "P. Giannozzi et al., J. Phys.:Condens. Matter 21 395502 (2009);
         "P. Giannozzi et al., J. Phys.:Condens. Matter 29 465901 (2017);
         "P. Giannozzi et al., J. Chem. Phys. 152 154105 (2020);
          URL http://www.quantum-espresso.org", 
     in publications or presentations arising from this work. More details at
     http://www.quantum-espresso.org/quote

     Parallel version (MPI), running on    24 processors

     MPI processes distributed on     1 nodes
     251454 MiB available memory on the printing compute node when the environment starts

     Reading input from ecut.600.in

     Current dimensions of program PWSCF are:
     Max number of different atomic species (ntypx) = 10
     Max number of k-points (npk) =  40000
     Max angular momentum in pseudopotentials (lmaxx) =  4

     K-points division:     npool     =       6
     R & G space division:  proc/nbgrp/npool/nimage =       4
     Subspace diagonalization in iterative solution of the eigenvalue problem:
     a serial algorithm will be used


     Parallelization info
     --------------------
     sticks:   dense  smooth     PW     G-vecs:    dense   smooth      PW
     Min        1005    1005    267               364375   364375   50421
     Max        1006    1006    268               364406   364406   50450
     Sum        4021    4021   1069              1457549  1457549  201715

     Using Slab Decomposition



     bravais-lattice index     =            4
     lattice parameter (alat)  =       4.9229  a.u.
     unit-cell volume          =     733.7343 (a.u.)^3
     number of atoms/cell      =            4
     number of atomic types    =            2
     number of electrons       =        22.00
     number of Kohn-Sham states=           15
     kinetic-energy cutoff     =     600.0000  Ry
     charge density cutoff     =    2400.0000  Ry
     scf convergence threshold =      1.0E-12
     mixing beta               =       0.7000
     number of iterations used =            8  plain     mixing
     Exchange-correlation=  SLA  PW   PBX  PBC
                           (   1   4   3   4   0   0   0)

     celldm(1)=   4.922852  celldm(2)=   0.000000  celldm(3)=   7.101627
     celldm(4)=   0.000000  celldm(5)=   0.000000  celldm(6)=   0.000000

     crystal axes: (cart. coord. in units of alat)
               a(1) = (   1.000000   0.000000   0.000000 )  
               a(2) = (  -0.500000   0.866025   0.000000 )  
               a(3) = (   0.000000   0.000000   7.101627 )  

     reciprocal axes: (cart. coord. in units 2 pi/alat)
               b(1) = (  1.000000  0.577350 -0.000000 )  
               b(2) = (  0.000000  1.154701  0.000000 )  
               b(3) = (  0.000000 -0.000000  0.140813 )  


     PseudoPot. # 1 for C  read from file:
     ../pseudo/c_pbe_v1.2.uspp.F.UPF
     MD5 check sum: d1aef80898a10debaa0f26306b886e00
     Pseudo is Ultrasoft + core correction, Zval =  4.0
     Generated by new atomic code, or converted to UPF format
     Using radial grid of  721 points,  4 beta functions with: 
                l(1) =   0
                l(2) =   0
                l(3) =   1
                l(4) =   1
     Q(r) pseudized with  8 coefficients,  rinner =    1.100   1.100   1.100


     PseudoPot. # 2 for F  read from file:
     ../pseudo/f_pbe_v1.4.uspp.F.UPF
     MD5 check sum: 4c38b6a325caf53ec0e86aed9459de46
     Pseudo is Ultrasoft, Zval =  7.0
     Generated by new atomic code, or converted to UPF format
     Using radial grid of  799 points,  4 beta functions with: 
                l(1) =   0
                l(2) =   0
                l(3) =   1
                l(4) =   1
     Q(r) pseudized with  8 coefficients,  rinner =    0.950   0.950   0.950


     atomic species   valence    mass     pseudopotential
        C              4.00    12.01070     C ( 1.00)
        F              7.00    18.99840     F ( 1.00)

     12 Sym. Ops., with inversion, found ( 8 have fractional translation)


                                    s                        frac. trans.

      isym =  1     identity                                     

 cryst.   s( 1) = (     1          0          0      )
                  (     0          1          0      )
                  (     0          0          1      )

 cart.    s( 1) = (  1.0000000  0.0000000  0.0000000 )
                  (  0.0000000  1.0000000  0.0000000 )
                  (  0.0000000  0.0000000  1.0000000 )


      isym =  2     180 deg rotation - cart. axis [1,0,0]        

 cryst.   s( 2) = (     1          0          0      )
                  (    -1         -1          0      )
                  (     0          0         -1      )

 cart.    s( 2) = (  1.0000000  0.0000000  0.0000000 )
                  (  0.0000000 -1.0000000  0.0000000 )
                  (  0.0000000  0.0000000 -1.0000000 )


      isym =  3     120 deg rotation - cryst. axis [0,0,1]       

 cryst.   s( 3) = (     0          1          0      )    f =( -0.5000000 )
                  (    -1         -1          0      )       ( -0.5000000 )
                  (     0          0          1      )       (  0.0000000 )

 cart.    s( 3) = ( -0.5000000 -0.8660254  0.0000000 )    f =( -0.2500000 )
                  (  0.8660254 -0.5000000  0.0000000 )       ( -0.4330127 )
                  (  0.0000000  0.0000000  1.0000000 )       (  0.0000000 )


      isym =  4     120 deg rotation - cryst. axis [0,0,-1]      

 cryst.   s( 4) = (    -1         -1          0      )    f =(  0.0000000 )
                  (     1          0          0      )       ( -0.5000000 )
                  (     0          0          1      )       (  0.0000000 )

 cart.    s( 4) = ( -0.5000000  0.8660254  0.0000000 )    f =(  0.2500000 )
                  ( -0.8660254 -0.5000000  0.0000000 )       ( -0.4330127 )
                  (  0.0000000  0.0000000  1.0000000 )       (  0.0000000 )


      isym =  5     180 deg rotation - cryst. axis [0,1,0]       

 cryst.   s( 5) = (    -1         -1          0      )    f =(  0.0000000 )
                  (     0          1          0      )       ( -0.5000000 )
                  (     0          0         -1      )       (  0.0000000 )

 cart.    s( 5) = ( -0.5000000 -0.8660254  0.0000000 )    f =(  0.2500000 )
                  ( -0.8660254  0.5000000  0.0000000 )       ( -0.4330127 )
                  (  0.0000000  0.0000000 -1.0000000 )       (  0.0000000 )


      isym =  6     180 deg rotation - cryst. axis [1,1,0]       

 cryst.   s( 6) = (     0          1          0      )    f =(  0.5000000 )
                  (     1          0          0      )       (  0.5000000 )
                  (     0          0         -1      )       (  0.0000000 )

 cart.    s( 6) = ( -0.5000000  0.8660254  0.0000000 )    f =(  0.2500000 )
                  (  0.8660254  0.5000000  0.0000000 )       (  0.4330127 )
                  (  0.0000000  0.0000000 -1.0000000 )       (  0.0000000 )


      isym =  7     inversion                                    

 cryst.   s( 7) = (    -1          0          0      )
                  (     0         -1          0      )
                  (     0          0         -1      )

 cart.    s( 7) = ( -1.0000000  0.0000000  0.0000000 )
                  (  0.0000000 -1.0000000  0.0000000 )
                  (  0.0000000  0.0000000 -1.0000000 )


      isym =  8     inv. 180 deg rotation - cart. axis [1,0,0]   

 cryst.   s( 8) = (    -1          0          0      )
                  (     1          1          0      )
                  (     0          0          1      )

 cart.    s( 8) = ( -1.0000000  0.0000000  0.0000000 )
                  (  0.0000000  1.0000000  0.0000000 )
                  (  0.0000000  0.0000000  1.0000000 )


      isym =  9     inv. 120 deg rotation - cryst. axis [0,0,1]  

 cryst.   s( 9) = (     0         -1          0      )    f =(  0.5000000 )
                  (     1          1          0      )       ( -0.5000000 )
                  (     0          0         -1      )       (  0.0000000 )

 cart.    s( 9) = (  0.5000000  0.8660254  0.0000000 )    f =(  0.7500000 )
                  ( -0.8660254  0.5000000  0.0000000 )       ( -0.4330127 )
                  (  0.0000000  0.0000000 -1.0000000 )       (  0.0000000 )


      isym = 10     inv. 120 deg rotation - cryst. axis [0,0,-1] 

 cryst.   s(10) = (     1          1          0      )    f =(  0.0000000 )
                  (    -1          0          0      )       (  0.5000000 )
                  (     0          0         -1      )       (  0.0000000 )

 cart.    s(10) = (  0.5000000 -0.8660254  0.0000000 )    f =( -0.2500000 )
                  (  0.8660254  0.5000000  0.0000000 )       (  0.4330127 )
                  (  0.0000000  0.0000000 -1.0000000 )       (  0.0000000 )


      isym = 11     inv. 180 deg rotation - cryst. axis [0,1,0]  

 cryst.   s(11) = (     1          1          0      )    f =(  0.0000000 )
                  (     0         -1          0      )       ( -0.5000000 )
                  (     0          0          1      )       (  0.0000000 )

 cart.    s(11) = (  0.5000000  0.8660254  0.0000000 )    f =(  0.2500000 )
                  (  0.8660254 -0.5000000  0.0000000 )       ( -0.4330127 )
                  (  0.0000000  0.0000000  1.0000000 )       (  0.0000000 )


      isym = 12     inv. 180 deg rotation - cryst. axis [1,1,0]  

 cryst.   s(12) = (     0         -1          0      )    f =( -0.5000000 )
                  (    -1          0          0      )       ( -0.5000000 )
                  (     0          0          1      )       (  0.0000000 )

 cart.    s(12) = (  0.5000000 -0.8660254  0.0000000 )    f =( -0.2500000 )
                  ( -0.8660254 -0.5000000  0.0000000 )       ( -0.4330127 )
                  (  0.0000000  0.0000000  1.0000000 )       (  0.0000000 )


     point group D_3d (-3m) 
     there are  6 classes
     the character table:

       E     2C3   3C2'  i     2S6   3s_d 
A_1g   1.00  1.00  1.00  1.00  1.00  1.00
A_2g   1.00  1.00 -1.00  1.00  1.00 -1.00
E_g    2.00 -1.00  0.00  2.00 -1.00  0.00
A_1u   1.00  1.00  1.00 -1.00 -1.00 -1.00
A_2u   1.00  1.00 -1.00 -1.00 -1.00  1.00
E_u    2.00 -1.00  0.00 -2.00  1.00  0.00

     the symmetry operations in each class and the name of the first element:

     E        1
          identity                                               
     2C3      3    4
          120 deg rotation - cryst. axis [0,0,1]                 
     3C2'     2    5    6
          180 deg rotation - cart. axis [1,0,0]                  
     i        7
          inversion                                              
     2S6      9   10
          inv. 120 deg rotation - cryst. axis [0,0,1]            
     3s_d     8   11   12
          inv. 180 deg rotation - cart. axis [1,0,0]             

   Cartesian axes

     site n.     atom                  positions (alat units)
         1           C   tau(   1) = (   0.5000000   0.5773503  -0.0938017  )
         2           C   tau(   2) = (  -0.0000000   0.2886751   0.0938017  )
         3           F   tau(   3) = (   0.5000000   0.5773503  -0.6235043  )
         4           F   tau(   4) = (  -0.0000000   0.2886751   0.6235043  )

   Crystallographic axes

     site n.     atom                  positions (cryst. coord.)
         1           C   tau(   1) = (  0.8333333  0.6666667 -0.0132085  )
         2           C   tau(   2) = (  0.1666667  0.3333333  0.0132085  )
         3           F   tau(   3) = (  0.8333333  0.6666667 -0.0877974  )
         4           F   tau(   4) = (  0.1666667  0.3333333  0.0877974  )

     number of k points=    12  Marzari-Vanderbilt smearing, width (Ry)=  0.0010
                       cart. coord. in units 2pi/alat
        k(    1) = (   0.0000000   0.0000000   0.0000000), wk =   0.0246914
        k(    2) = (   0.0000000   0.1283001   0.0000000), wk =   0.1481481
        k(    3) = (   0.0000000   0.2566001   0.0000000), wk =   0.1481481
        k(    4) = (   0.0000000   0.3849002   0.0000000), wk =   0.1481481
        k(    5) = (   0.0000000   0.5132002   0.0000000), wk =   0.1481481
        k(    6) = (   0.1111111   0.1924501   0.0000000), wk =   0.1481481
        k(    7) = (   0.1111111   0.3207501   0.0000000), wk =   0.2962963
        k(    8) = (   0.1111111   0.4490502   0.0000000), wk =   0.2962963
        k(    9) = (   0.1111111   0.5773503   0.0000000), wk =   0.1481481
        k(   10) = (   0.2222222   0.3849002   0.0000000), wk =   0.1481481
        k(   11) = (   0.2222222   0.5132002   0.0000000), wk =   0.2962963
        k(   12) = (   0.3333333   0.5773503   0.0000000), wk =   0.0493827

                       cryst. coord.
        k(    1) = (   0.0000000   0.0000000   0.0000000), wk =   0.0246914
        k(    2) = (   0.0000000   0.1111111   0.0000000), wk =   0.1481481
        k(    3) = (   0.0000000   0.2222222   0.0000000), wk =   0.1481481
        k(    4) = (   0.0000000   0.3333333   0.0000000), wk =   0.1481481
        k(    5) = (   0.0000000   0.4444444   0.0000000), wk =   0.1481481
        k(    6) = (   0.1111111   0.1111111   0.0000000), wk =   0.1481481
        k(    7) = (   0.1111111   0.2222222   0.0000000), wk =   0.2962963
        k(    8) = (   0.1111111   0.3333333   0.0000000), wk =   0.2962963
        k(    9) = (   0.1111111   0.4444444   0.0000000), wk =   0.1481481
        k(   10) = (   0.2222222   0.2222222   0.0000000), wk =   0.1481481
        k(   11) = (   0.2222222   0.3333333   0.0000000), wk =   0.2962963
        k(   12) = (   0.3333333   0.3333333   0.0000000), wk =   0.0493827

     Dense  grid:  1457549 G-vectors     FFT dimensions: (  80,  80, 576)

     Dynamical RAM for                 wfc:      10.42 MB

     Dynamical RAM for     wfc (w. buffer):      31.26 MB

     Dynamical RAM for           str. fact:      11.12 MB

     Dynamical RAM for           local pot:       0.00 MB

     Dynamical RAM for          nlocal pot:      22.23 MB

     Dynamical RAM for                qrad:       2.24 MB

     Dynamical RAM for          rho,v,vnew:      37.77 MB

     Dynamical RAM for               rhoin:      12.59 MB

     Dynamical RAM for            rho*nmix:      88.96 MB

     Dynamical RAM for           G-vectors:      23.63 MB

     Dynamical RAM for          h,s,v(r/c):       0.04 MB

     Dynamical RAM for          <psi|beta>:       0.01 MB

     Dynamical RAM for                 psi:      20.84 MB

     Dynamical RAM for                hpsi:      20.84 MB

     Dynamical RAM for                spsi:      20.84 MB

     Dynamical RAM for      wfcinit/wfcrot:      22.23 MB

     Dynamical RAM for           addusdens:      46.33 MB

     Dynamical RAM for          addusforce:      46.33 MB

     Dynamical RAM for         addusstress:      48.65 MB

     Estimated static dynamical RAM per process >     192.68 MB

     Estimated max dynamical RAM per process >     344.21 MB

     Estimated total dynamical RAM >       6.33 GB

     Initial potential from superposition of free atoms

     starting charge      21.9999, renormalised to      22.0000

     negative rho (up, down):  8.093E-04 0.000E+00
     Starting wfcs are   16 randomized atomic wfcs

     total cpu time spent up to now is        9.4 secs

     Self-consistent Calculation

     iteration #  1     ecut=   600.00 Ry     beta= 0.70
     Davidson diagonalization with overlap

---- Real-time Memory Report at c_bands before calling an iterative solver
           266 MiB given to the printing process from OS
             0 MiB allocation reported by mallinfo(arena+hblkhd)
        246868 MiB available memory on the node where the printing process lives
------------------
     ethr =  1.00E-02,  avg # of iterations =  4.2

     Threshold (ethr) on eigenvalues was too large:
     Diagonalizing with lowered threshold

     Davidson diagonalization with overlap

---- Real-time Memory Report at c_bands before calling an iterative solver
           300 MiB given to the printing process from OS
             0 MiB allocation reported by mallinfo(arena+hblkhd)
        246081 MiB available memory on the node where the printing process lives
------------------
     ethr =  9.49E-04,  avg # of iterations =  1.0

     negative rho (up, down):  2.239E-04 0.000E+00

     total cpu time spent up to now is       45.5 secs

     total energy              =    -120.08741395 Ry
     estimated scf accuracy    <       0.20649827 Ry

     iteration #  2     ecut=   600.00 Ry     beta= 0.70
     Davidson diagonalization with overlap

---- Real-time Memory Report at c_bands before calling an iterative solver
           382 MiB given to the printing process from OS
             0 MiB allocation reported by mallinfo(arena+hblkhd)
        244749 MiB available memory on the node where the printing process lives
------------------
     ethr =  9.39E-04,  avg # of iterations =  2.6

     negative rho (up, down):  1.212E-04 0.000E+00

     total cpu time spent up to now is       64.5 secs

     total energy              =    -120.10108892 Ry
     estimated scf accuracy    <       0.10990995 Ry

     iteration #  3     ecut=   600.00 Ry     beta= 0.70
     Davidson diagonalization with overlap

---- Real-time Memory Report at c_bands before calling an iterative solver
           394 MiB given to the printing process from OS
             0 MiB allocation reported by mallinfo(arena+hblkhd)
        244704 MiB available memory on the node where the printing process lives
------------------
     ethr =  5.00E-04,  avg # of iterations =  3.2

     negative rho (up, down):  2.333E-05 0.000E+00

     total cpu time spent up to now is       86.2 secs

     total energy              =    -120.13182563 Ry
     estimated scf accuracy    <       0.01479280 Ry

     iteration #  4     ecut=   600.00 Ry     beta= 0.70
     Davidson diagonalization with overlap

---- Real-time Memory Report at c_bands before calling an iterative solver
           405 MiB given to the printing process from OS
             0 MiB allocation reported by mallinfo(arena+hblkhd)
        245622 MiB available memory on the node where the printing process lives
------------------
     ethr =  6.72E-05,  avg # of iterations =  5.8

     negative rho (up, down):  5.076E-06 0.000E+00

     total cpu time spent up to now is      118.0 secs

     total energy              =    -120.13428886 Ry
     estimated scf accuracy    <       0.00012750 Ry

     iteration #  5     ecut=   600.00 Ry     beta= 0.70
     Davidson diagonalization with overlap

---- Real-time Memory Report at c_bands before calling an iterative solver
           416 MiB given to the printing process from OS
             0 MiB allocation reported by mallinfo(arena+hblkhd)
        244993 MiB available memory on the node where the printing process lives
------------------
     ethr =  5.80E-07,  avg # of iterations =  5.0

     negative rho (up, down):  5.402E-06 0.000E+00

     total cpu time spent up to now is      148.0 secs

     total energy              =    -120.13432620 Ry
     estimated scf accuracy    <       0.00000525 Ry

     iteration #  6     ecut=   600.00 Ry     beta= 0.70
     Davidson diagonalization with overlap

---- Real-time Memory Report at c_bands before calling an iterative solver
           428 MiB given to the printing process from OS
             0 MiB allocation reported by mallinfo(arena+hblkhd)
        245266 MiB available memory on the node where the printing process lives
------------------
     ethr =  2.39E-08,  avg # of iterations =  2.1

     negative rho (up, down):  5.506E-06 0.000E+00

     total cpu time spent up to now is      165.4 secs

     total energy              =    -120.13432689 Ry
     estimated scf accuracy    <       0.00000028 Ry

     iteration #  7     ecut=   600.00 Ry     beta= 0.70
     Davidson diagonalization with overlap

---- Real-time Memory Report at c_bands before calling an iterative solver
           439 MiB given to the printing process from OS
             0 MiB allocation reported by mallinfo(arena+hblkhd)
        244574 MiB available memory on the node where the printing process lives
------------------
     ethr =  1.28E-09,  avg # of iterations =  2.2

     negative rho (up, down):  5.504E-06 0.000E+00

     total cpu time spent up to now is      183.3 secs

     total energy              =    -120.13432698 Ry
     estimated scf accuracy    <       0.00000005 Ry

     iteration #  8     ecut=   600.00 Ry     beta= 0.70
     Davidson diagonalization with overlap

---- Real-time Memory Report at c_bands before calling an iterative solver
           450 MiB given to the printing process from OS
             0 MiB allocation reported by mallinfo(arena+hblkhd)
        244511 MiB available memory on the node where the printing process lives
------------------
     ethr =  2.08E-10,  avg # of iterations =  2.1

     negative rho (up, down):  5.502E-06 0.000E+00

     total cpu time spent up to now is      201.2 secs

     total energy              =    -120.13432699 Ry
     estimated scf accuracy    <          5.1E-11 Ry

     iteration #  9     ecut=   600.00 Ry     beta= 0.70
     Davidson diagonalization with overlap

---- Real-time Memory Report at c_bands before calling an iterative solver
           461 MiB given to the printing process from OS
             0 MiB allocation reported by mallinfo(arena+hblkhd)
        244449 MiB available memory on the node where the printing process lives
------------------
     ethr =  2.33E-13,  avg # of iterations =  4.8

     negative rho (up, down):  5.502E-06 0.000E+00

     total cpu time spent up to now is      230.9 secs

     total energy              =    -120.13432699 Ry
     estimated scf accuracy    <          4.3E-11 Ry

     iteration # 10     ecut=   600.00 Ry     beta= 0.70
     Davidson diagonalization with overlap

---- Real-time Memory Report at c_bands before calling an iterative solver
           472 MiB given to the printing process from OS
             0 MiB allocation reported by mallinfo(arena+hblkhd)
        244436 MiB available memory on the node where the printing process lives
------------------
     ethr =  1.95E-13,  avg # of iterations =  2.0

     negative rho (up, down):  5.501E-06 0.000E+00

     total cpu time spent up to now is      247.7 secs

     total energy              =    -120.13432699 Ry
     estimated scf accuracy    <          1.7E-12 Ry

     iteration # 11     ecut=   600.00 Ry     beta= 0.70
     Davidson diagonalization with overlap

---- Real-time Memory Report at c_bands before calling an iterative solver
           472 MiB given to the printing process from OS
             0 MiB allocation reported by mallinfo(arena+hblkhd)
        244756 MiB available memory on the node where the printing process lives
------------------
     ethr =  1.00E-13,  avg # of iterations =  1.0

     negative rho (up, down):  5.501E-06 0.000E+00

     total cpu time spent up to now is      261.1 secs

     End of self-consistent calculation

          k = 0.0000 0.0000 0.0000 (182175 PWs)   bands (ev):

   -29.3982 -28.9023 -20.1881 -12.8243  -9.8425  -8.0997  -8.0997  -6.9220
    -6.9220  -3.9534  -3.9534  -0.8110   3.4083   3.4083   3.5913

     occupation numbers 
     1.0000   1.0000   1.0000   1.0000   1.0000   1.0000   1.0000   1.0000
     1.0000   1.0000   1.0000   0.0000   0.0000   0.0000   0.0000

          k = 0.0000 0.1283 0.0000 (181999 PWs)   bands (ev):

   -29.2922 -28.8267 -19.9985 -12.7257  -9.9388  -8.8930  -8.3612  -7.1335
    -6.9672  -4.6910  -4.2207  -0.2281   3.4871   3.9614   4.1912

     occupation numbers 
     1.0000   1.0000   1.0000   1.0000   1.0000   1.0000   1.0000   1.0000
     1.0000   1.0000   1.0000   0.0000   0.0000   0.0000   0.0000

          k = 0.0000 0.2566 0.0000 (181979 PWs)   bands (ev):

   -29.0115 -28.6316 -19.4316 -12.5181 -10.8364 -10.0610  -8.9689  -7.6269
    -7.0991  -6.0283  -4.7105   0.6369   3.7096   4.9619   5.3956

     occupation numbers 
     1.0000   1.0000   1.0000   1.0000   1.0000   1.0000   1.0000   1.0000
     1.0000   1.0000   1.0000   0.0000   0.0000   0.0000   0.0000

          k = 0.0000 0.3849 0.0000 (182129 PWs)   bands (ev):

   -28.6641 -28.4073 -18.4931 -13.3501 -11.8018 -10.4606  -9.5846  -8.1013
    -7.2610  -7.1935  -5.1012   1.1686   4.1216   5.8530   7.6661

     occupation numbers 
     1.0000   1.0000   1.0000   1.0000   1.0000   1.0000   1.0000   1.0000
     1.0000   1.0000   1.0000   0.0000   0.0000   0.0000   0.0000

          k = 0.0000 0.5132 0.0000 (182190 PWs)   bands (ev):

   -28.4067 -28.2714 -17.2291 -15.2464 -11.6314 -10.7449  -9.9513  -8.3904
    -7.8384  -7.3686  -5.3063   1.4258   4.5380   5.1404   8.6111

     occupation numbers 
     1.0000   1.0000   1.0000   1.0000   1.0000   1.0000   1.0000   1.0000
     1.0000   1.0000   1.0000   0.0000   0.0000   0.0000   0.0000

          k = 0.1111 0.1925 0.0000 (182023 PWs)   bands (ev):

   -29.0987 -28.6911 -19.6201 -12.5642 -10.1645 -10.0514  -8.9114  -7.3695
    -7.1914  -5.5369  -4.7480   0.5649   3.9657   4.6666   4.7201

     occupation numbers 
     1.0000   1.0000   1.0000   1.0000   1.0000   1.0000   1.0000   1.0000
     1.0000   1.0000   1.0000   0.0000   0.0000   0.0000   0.0000

          k = 0.1111 0.3208 0.0000 (182105 PWs)   bands (ev):

   -28.7832 -28.4800 -18.8659 -12.6225 -11.5426 -10.5481  -9.6325  -7.8409
    -7.4896  -6.5320  -5.3037   1.4953   4.4698   5.8066   6.2565

     occupation numbers 
     1.0000   1.0000   1.0000   1.0000   1.0000   1.0000   1.0000   1.0000
     1.0000   1.0000   1.0000   0.0000   0.0000   0.0000   0.0000

          k = 0.1111 0.4491 0.0000 (182112 PWs)   bands (ev):

   -28.4766 -28.2987 -17.7476 -14.2286 -11.6900 -10.8169 -10.2346  -8.3218
    -7.7179  -7.2431  -5.6132   2.1638   4.7803   5.6221   7.8935

     occupation numbers 
     1.0000   1.0000   1.0000   1.0000   1.0000   1.0000   1.0000   1.0000
     1.0000   1.0000   1.0000   0.0000   0.0000   0.0000   0.0000

          k = 0.1111 0.5774 0.0000 (182094 PWs)   bands (ev):

   -28.3368 -28.2388 -16.6286 -15.6629 -11.6358 -10.7685 -10.5850  -8.5095
    -7.8368  -7.4637  -5.7137   2.4668   4.9991   5.0003   8.2594

     occupation numbers 
     1.0000   1.0000   1.0000   1.0000   1.0000   1.0000   1.0000   1.0000
     1.0000   1.0000   1.0000   0.0000   0.0000   0.0000   0.0000

          k = 0.2222 0.3849 0.0000 (182091 PWs)   bands (ev):

   -28.5057 -28.3097 -17.9255 -13.4685 -11.6288 -11.4808 -10.2560  -8.2754
    -7.8147  -6.9055  -6.0347   2.7369   5.8172   6.5547   6.6836

     occupation numbers 
     1.0000   1.0000   1.0000   1.0000   1.0000   1.0000   1.0000   1.0000
     1.0000   1.0000   1.0000   0.0000   0.0000   0.0000   0.0000

          k = 0.2222 0.5132 0.0000 (182124 PWs)   bands (ev):

   -28.3007 -28.2128 -16.6690 -14.8655 -12.3423 -11.1697 -10.6666  -8.6638
    -7.7341  -7.3807  -6.3916   3.7597   5.3444   6.4889   7.4542

     occupation numbers 
     1.0000   1.0000   1.0000   1.0000   1.0000   1.0000   1.0000   1.0000
     1.0000   1.0000   1.0000   0.0000   0.0000   0.0000   0.0000

          k = 0.3333 0.5774 0.0000 (182121 PWs)   bands (ev):

   -28.2049 -28.2049 -15.5335 -15.5335 -13.1927 -10.9161 -10.9161  -8.8360
    -7.5002  -7.5002  -6.8615   4.8178   4.8178   7.0278   8.4926

     occupation numbers 
     1.0000   1.0000   1.0000   1.0000   1.0000   1.0000   1.0000   1.0000
     1.0000   1.0000   1.0000   0.0000   0.0000   0.0000   0.0000

     the Fermi energy is    -3.2158 ev

!    total energy              =    -120.13432699 Ry
     estimated scf accuracy    <          1.7E-13 Ry
     smearing contrib. (-TS)   =       0.00000000 Ry
     internal energy E=F+TS    =    -120.13432699 Ry

     The total energy is F=E-TS. E is the sum of the following terms:
     one-electron contribution =    -975.19916959 Ry
     hartree contribution      =     493.36110301 Ry
     xc contribution           =     -25.85848671 Ry
     ewald contribution        =     387.56222630 Ry

     convergence has been achieved in  11 iterations

     negative rho (up, down):  5.501E-06 0.000E+00

     Forces acting on atoms (cartesian axes, Ry/au):

     atom    1 type  1   force =     0.00000000    0.00000000   -0.00032505
     atom    2 type  1   force =    -0.00000000   -0.00000000    0.00032505
     atom    3 type  2   force =     0.00000000    0.00000000    0.00002976
     atom    4 type  2   force =    -0.00000000   -0.00000000   -0.00002976
     The non-local contrib.  to forces
     atom    1 type  1   force =    -0.00000000   -0.00000000   -0.39799914
     atom    2 type  1   force =     0.00000000   -0.00000000    0.39799914
     atom    3 type  2   force =     0.00000000    0.00000000    2.50679939
     atom    4 type  2   force =    -0.00000000   -0.00000000   -2.50679939
     The ionic contribution  to forces
     atom    1 type  1   force =    -0.00000001    0.00000000   -1.16488099
     atom    2 type  1   force =     0.00000001   -0.00000000    1.16488099
     atom    3 type  2   force =    -0.00000000    0.00000000  -48.74159951
     atom    4 type  2   force =     0.00000000   -0.00000000   48.74159951
     The local contribution  to forces
     atom    1 type  1   force =    -0.00000000    0.00000001    1.55938522
     atom    2 type  1   force =     0.00000001   -0.00000000   -1.55938520
     atom    3 type  2   force =    -0.00000000    0.00000007   46.23482867
     atom    4 type  2   force =     0.00000016   -0.00000003  -46.23482869
     The core correction contribution to forces
     atom    1 type  1   force =    -0.00000000   -0.00000000    0.00316966
     atom    2 type  1   force =    -0.00000000    0.00000000   -0.00316966
     atom    3 type  2   force =     0.00000000    0.00000000    0.00000000
     atom    4 type  2   force =     0.00000000    0.00000000    0.00000000
     The Hubbard contrib.    to forces
     atom    1 type  1   force =     0.00000000    0.00000000    0.00000000
     atom    2 type  1   force =     0.00000000    0.00000000    0.00000000
     atom    3 type  2   force =     0.00000000    0.00000000    0.00000000
     atom    4 type  2   force =     0.00000000    0.00000000    0.00000000
     The SCF correction term to forces
     atom    1 type  1   force =     0.00000000    0.00000000    0.00000020
     atom    2 type  1   force =    -0.00000000   -0.00000000   -0.00000020
     atom    3 type  2   force =    -0.00000000    0.00000000    0.00000120
     atom    4 type  2   force =     0.00000000    0.00000000   -0.00000120

     Total force =     0.000462     Total SCF correction =     0.000002


     Computing stress (Cartesian axis) and pressure


     negative rho (up, down):  5.501E-06 0.000E+00
          total   stress  (Ry/bohr**3)                   (kbar)     P=        0.10
   0.00000098   0.00000000   0.00000000            0.14        0.00        0.00
   0.00000000   0.00000098   0.00000000            0.00        0.14        0.00
  -0.00000000  -0.00000000   0.00000001           -0.00       -0.00        0.00

     kinetic stress (kbar)   6756.42      0.00      0.00
                                0.00   6756.42      0.00
                                0.00      0.00   6005.59

     local   stress (kbar)-188576.45      0.00     -0.00
                                0.00-188576.45      0.00
                               -0.00      0.00 183501.23

     nonloc. stress (kbar)    872.12     -0.00      0.00
                               -0.00    872.12     -0.00
                                0.00     -0.00    676.80

     hartree stress (kbar)  94250.27     -0.00     -0.00
                               -0.00  94250.27     -0.00
                               -0.00     -0.00 -89587.45

     exc-cor stress (kbar)  -1583.33     -0.00      0.00
                               -0.00  -1583.33     -0.00
                                0.00     -0.00  -1573.09

     corecor stress (kbar)    -54.54      0.00     -0.00
                                0.00    -54.54      0.00
                               -0.00      0.00    -53.44

     ewald   stress (kbar)  88335.65     -0.00      0.00
                               -0.00  88335.65     -0.00
                                0.00     -0.00 -98969.63

     hubbard stress (kbar)      0.00      0.00      0.00
                                0.00      0.00      0.00
                                0.00      0.00      0.00

     DFT-D   stress (kbar)      0.00      0.00      0.00
                                0.00      0.00      0.00
                                0.00      0.00      0.00

     XDM     stress (kbar)      0.00      0.00      0.00
                                0.00      0.00      0.00
                                0.00      0.00      0.00

     dft-nl  stress (kbar)      0.00      0.00      0.00
                                0.00      0.00      0.00
                                0.00      0.00      0.00

     TS-vdW  stress (kbar)      0.00      0.00      0.00
                                0.00      0.00      0.00
                                0.00      0.00      0.00

     MDB     stress (kbar)      0.00      0.00      0.00
                                0.00      0.00      0.00
                                0.00      0.00      0.00

     3D-RISM stress (kbar)      0.00      0.00      0.00
                                0.00      0.00      0.00
                                0.00      0.00      0.00


     Writing all to output data dir ../tmp/fgc.save/

     init_run     :      5.94s CPU      8.36s WALL (       1 calls)
     electrons    :    149.46s CPU    252.01s WALL (       1 calls)
     forces       :      2.81s CPU      4.91s WALL (       1 calls)
     stress       :      5.41s CPU      8.98s WALL (       1 calls)

     Called by init_run:
     wfcinit      :      2.80s CPU      4.51s WALL (       1 calls)
     wfcinit:atom :      0.02s CPU      0.01s WALL (       2 calls)
     wfcinit:wfcr :      2.52s CPU      4.28s WALL (       2 calls)
     potinit      :      1.14s CPU      1.26s WALL (       1 calls)
     hinit0       :      1.20s CPU      1.24s WALL (       1 calls)

     Called by electrons:
     c_bands      :    117.32s CPU    204.04s WALL (      12 calls)
     sum_band     :     17.89s CPU     27.77s WALL (      12 calls)
     v_of_rho     :      6.05s CPU      6.57s WALL (      12 calls)
     v_h          :      0.55s CPU      0.58s WALL (      12 calls)
     v_xc         :      6.44s CPU      7.09s WALL (      14 calls)
     newd         :      7.04s CPU     12.39s WALL (      12 calls)
     mix_rho      :      0.98s CPU      1.28s WALL (      12 calls)

     Called by c_bands:
     init_us_2    :      0.67s CPU      0.78s WALL (      54 calls)
     init_us_2:cp :      0.67s CPU      0.78s WALL (      54 calls)
     cegterg      :    101.37s CPU    174.31s WALL (      24 calls)

     Called by sum_band:
     sum_band:wei :      0.15s CPU      0.15s WALL (      12 calls)
     sum_band:loo :     10.84s CPU     16.16s WALL (      12 calls)
     sum_band:buf :      0.08s CPU      0.09s WALL (      24 calls)
     sum_band:ini :      0.21s CPU      0.33s WALL (      24 calls)
     sum_band:cal :      3.02s CPU      7.58s WALL (      24 calls)
     sum_band:bec :      0.00s CPU      0.00s WALL (      24 calls)
     addusdens    :      2.63s CPU      6.34s WALL (      12 calls)
     addusd:skk   :      0.01s CPU      0.01s WALL (      24 calls)
     addusd:dgemm :      0.82s CPU      2.61s WALL (      24 calls)
     addusd:qvan2 :      0.79s CPU      2.37s WALL (      24 calls)

     Called by *egterg:
     cdiaghg      :      6.42s CPU     11.66s WALL (     113 calls)
     cegterg:over :     15.88s CPU     24.74s WALL (      91 calls)
     cegterg:upda :      2.16s CPU      4.58s WALL (      91 calls)
     cegterg:last :      2.62s CPU      4.49s WALL (      52 calls)
     h_psi        :     63.21s CPU    108.78s WALL (     117 calls)
     s_psi        :      1.50s CPU      2.45s WALL (     117 calls)
     g_psi        :      0.10s CPU      0.09s WALL (      91 calls)

     Called by h_psi:
     h_psi:calbec :     15.19s CPU     29.75s WALL (     117 calls)
     vloc_psi     :     44.40s CPU     71.16s WALL (     117 calls)
     add_vuspsi   :      3.49s CPU      7.62s WALL (     117 calls)

     General routines
     calbec       :     19.34s CPU     40.11s WALL (     151 calls)
     fft          :      5.12s CPU      5.58s WALL (     158 calls)
     ffts         :      0.70s CPU      0.71s WALL (      12 calls)
     fftw         :     44.15s CPU     69.72s WALL (    2338 calls)

     Parallel routines

     PWSCF        :   2m44.54s CPU   4m36.69s WALL


   This run was terminated on:   3:37:23  24Feb2024            

=------------------------------------------------------------------------------=
   JOB DONE.
=------------------------------------------------------------------------------=
