
     Program PWSCF v.7.1 starts on 24Feb2024 at  3:14:37 

     This program is part of the open-source Quantum ESPRESSO suite
     for quantum simulation of materials; please cite
         "P. Giannozzi et al., J. Phys.:Condens. Matter 21 395502 (2009);
         "P. Giannozzi et al., J. Phys.:Condens. Matter 29 465901 (2017);
         "P. Giannozzi et al., J. Chem. Phys. 152 154105 (2020);
          URL http://www.quantum-espresso.org", 
     in publications or presentations arising from this work. More details at
     http://www.quantum-espresso.org/quote

     Parallel version (MPI), running on    24 processors

     MPI processes distributed on     1 nodes
     251585 MiB available memory on the printing compute node when the environment starts

     Reading input from ecut.100.in

     Current dimensions of program PWSCF are:
     Max number of different atomic species (ntypx) = 10
     Max number of k-points (npk) =  40000
     Max angular momentum in pseudopotentials (lmaxx) =  4

     K-points division:     npool     =       6
     R & G space division:  proc/nbgrp/npool/nimage =       4
     Subspace diagonalization in iterative solution of the eigenvalue problem:
     a serial algorithm will be used


     Parallelization info
     --------------------
     sticks:   dense  smooth     PW     G-vecs:    dense   smooth      PW
     Min         168     168     49                24808    24808    3969
     Max         169     169     50                24825    24825    3990
     Sum         673     673    199                99271    99271   15931

     Using Slab Decomposition



     bravais-lattice index     =            4
     lattice parameter (alat)  =       4.9229  a.u.
     unit-cell volume          =     733.7343 (a.u.)^3
     number of atoms/cell      =            4
     number of atomic types    =            2
     number of electrons       =        22.00
     number of Kohn-Sham states=           15
     kinetic-energy cutoff     =     100.0000  Ry
     charge density cutoff     =     400.0000  Ry
     scf convergence threshold =      1.0E-12
     mixing beta               =       0.7000
     number of iterations used =            8  plain     mixing
     Exchange-correlation=  SLA  PW   PBX  PBC
                           (   1   4   3   4   0   0   0)

     celldm(1)=   4.922852  celldm(2)=   0.000000  celldm(3)=   7.101627
     celldm(4)=   0.000000  celldm(5)=   0.000000  celldm(6)=   0.000000

     crystal axes: (cart. coord. in units of alat)
               a(1) = (   1.000000   0.000000   0.000000 )  
               a(2) = (  -0.500000   0.866025   0.000000 )  
               a(3) = (   0.000000   0.000000   7.101627 )  

     reciprocal axes: (cart. coord. in units 2 pi/alat)
               b(1) = (  1.000000  0.577350 -0.000000 )  
               b(2) = (  0.000000  1.154701  0.000000 )  
               b(3) = (  0.000000 -0.000000  0.140813 )  


     PseudoPot. # 1 for C  read from file:
     ../pseudo/c_pbe_v1.2.uspp.F.UPF
     MD5 check sum: d1aef80898a10debaa0f26306b886e00
     Pseudo is Ultrasoft + core correction, Zval =  4.0
     Generated by new atomic code, or converted to UPF format
     Using radial grid of  721 points,  4 beta functions with: 
                l(1) =   0
                l(2) =   0
                l(3) =   1
                l(4) =   1
     Q(r) pseudized with  8 coefficients,  rinner =    1.100   1.100   1.100


     PseudoPot. # 2 for F  read from file:
     ../pseudo/f_pbe_v1.4.uspp.F.UPF
     MD5 check sum: 4c38b6a325caf53ec0e86aed9459de46
     Pseudo is Ultrasoft, Zval =  7.0
     Generated by new atomic code, or converted to UPF format
     Using radial grid of  799 points,  4 beta functions with: 
                l(1) =   0
                l(2) =   0
                l(3) =   1
                l(4) =   1
     Q(r) pseudized with  8 coefficients,  rinner =    0.950   0.950   0.950


     atomic species   valence    mass     pseudopotential
        C              4.00    12.01070     C ( 1.00)
        F              7.00    18.99840     F ( 1.00)

     12 Sym. Ops., with inversion, found ( 8 have fractional translation)


                                    s                        frac. trans.

      isym =  1     identity                                     

 cryst.   s( 1) = (     1          0          0      )
                  (     0          1          0      )
                  (     0          0          1      )

 cart.    s( 1) = (  1.0000000  0.0000000  0.0000000 )
                  (  0.0000000  1.0000000  0.0000000 )
                  (  0.0000000  0.0000000  1.0000000 )


      isym =  2     180 deg rotation - cart. axis [1,0,0]        

 cryst.   s( 2) = (     1          0          0      )
                  (    -1         -1          0      )
                  (     0          0         -1      )

 cart.    s( 2) = (  1.0000000  0.0000000  0.0000000 )
                  (  0.0000000 -1.0000000  0.0000000 )
                  (  0.0000000  0.0000000 -1.0000000 )


      isym =  3     120 deg rotation - cryst. axis [0,0,1]       

 cryst.   s( 3) = (     0          1          0      )    f =( -0.5000000 )
                  (    -1         -1          0      )       ( -0.5000000 )
                  (     0          0          1      )       (  0.0000000 )

 cart.    s( 3) = ( -0.5000000 -0.8660254  0.0000000 )    f =( -0.2500000 )
                  (  0.8660254 -0.5000000  0.0000000 )       ( -0.4330127 )
                  (  0.0000000  0.0000000  1.0000000 )       (  0.0000000 )


      isym =  4     120 deg rotation - cryst. axis [0,0,-1]      

 cryst.   s( 4) = (    -1         -1          0      )    f =(  0.0000000 )
                  (     1          0          0      )       ( -0.5000000 )
                  (     0          0          1      )       (  0.0000000 )

 cart.    s( 4) = ( -0.5000000  0.8660254  0.0000000 )    f =(  0.2500000 )
                  ( -0.8660254 -0.5000000  0.0000000 )       ( -0.4330127 )
                  (  0.0000000  0.0000000  1.0000000 )       (  0.0000000 )


      isym =  5     180 deg rotation - cryst. axis [0,1,0]       

 cryst.   s( 5) = (    -1         -1          0      )    f =(  0.0000000 )
                  (     0          1          0      )       ( -0.5000000 )
                  (     0          0         -1      )       (  0.0000000 )

 cart.    s( 5) = ( -0.5000000 -0.8660254  0.0000000 )    f =(  0.2500000 )
                  ( -0.8660254  0.5000000  0.0000000 )       ( -0.4330127 )
                  (  0.0000000  0.0000000 -1.0000000 )       (  0.0000000 )


      isym =  6     180 deg rotation - cryst. axis [1,1,0]       

 cryst.   s( 6) = (     0          1          0      )    f =(  0.5000000 )
                  (     1          0          0      )       (  0.5000000 )
                  (     0          0         -1      )       (  0.0000000 )

 cart.    s( 6) = ( -0.5000000  0.8660254  0.0000000 )    f =(  0.2500000 )
                  (  0.8660254  0.5000000  0.0000000 )       (  0.4330127 )
                  (  0.0000000  0.0000000 -1.0000000 )       (  0.0000000 )


      isym =  7     inversion                                    

 cryst.   s( 7) = (    -1          0          0      )
                  (     0         -1          0      )
                  (     0          0         -1      )

 cart.    s( 7) = ( -1.0000000  0.0000000  0.0000000 )
                  (  0.0000000 -1.0000000  0.0000000 )
                  (  0.0000000  0.0000000 -1.0000000 )


      isym =  8     inv. 180 deg rotation - cart. axis [1,0,0]   

 cryst.   s( 8) = (    -1          0          0      )
                  (     1          1          0      )
                  (     0          0          1      )

 cart.    s( 8) = ( -1.0000000  0.0000000  0.0000000 )
                  (  0.0000000  1.0000000  0.0000000 )
                  (  0.0000000  0.0000000  1.0000000 )


      isym =  9     inv. 120 deg rotation - cryst. axis [0,0,1]  

 cryst.   s( 9) = (     0         -1          0      )    f =(  0.5000000 )
                  (     1          1          0      )       ( -0.5000000 )
                  (     0          0         -1      )       (  0.0000000 )

 cart.    s( 9) = (  0.5000000  0.8660254  0.0000000 )    f =(  0.7500000 )
                  ( -0.8660254  0.5000000  0.0000000 )       ( -0.4330127 )
                  (  0.0000000  0.0000000 -1.0000000 )       (  0.0000000 )


      isym = 10     inv. 120 deg rotation - cryst. axis [0,0,-1] 

 cryst.   s(10) = (     1          1          0      )    f =(  0.0000000 )
                  (    -1          0          0      )       (  0.5000000 )
                  (     0          0         -1      )       (  0.0000000 )

 cart.    s(10) = (  0.5000000 -0.8660254  0.0000000 )    f =( -0.2500000 )
                  (  0.8660254  0.5000000  0.0000000 )       (  0.4330127 )
                  (  0.0000000  0.0000000 -1.0000000 )       (  0.0000000 )


      isym = 11     inv. 180 deg rotation - cryst. axis [0,1,0]  

 cryst.   s(11) = (     1          1          0      )    f =(  0.0000000 )
                  (     0         -1          0      )       ( -0.5000000 )
                  (     0          0          1      )       (  0.0000000 )

 cart.    s(11) = (  0.5000000  0.8660254  0.0000000 )    f =(  0.2500000 )
                  (  0.8660254 -0.5000000  0.0000000 )       ( -0.4330127 )
                  (  0.0000000  0.0000000  1.0000000 )       (  0.0000000 )


      isym = 12     inv. 180 deg rotation - cryst. axis [1,1,0]  

 cryst.   s(12) = (     0         -1          0      )    f =( -0.5000000 )
                  (    -1          0          0      )       ( -0.5000000 )
                  (     0          0          1      )       (  0.0000000 )

 cart.    s(12) = (  0.5000000 -0.8660254  0.0000000 )    f =( -0.2500000 )
                  ( -0.8660254 -0.5000000  0.0000000 )       ( -0.4330127 )
                  (  0.0000000  0.0000000  1.0000000 )       (  0.0000000 )


     point group D_3d (-3m) 
     there are  6 classes
     the character table:

       E     2C3   3C2'  i     2S6   3s_d 
A_1g   1.00  1.00  1.00  1.00  1.00  1.00
A_2g   1.00  1.00 -1.00  1.00  1.00 -1.00
E_g    2.00 -1.00  0.00  2.00 -1.00  0.00
A_1u   1.00  1.00  1.00 -1.00 -1.00 -1.00
A_2u   1.00  1.00 -1.00 -1.00 -1.00  1.00
E_u    2.00 -1.00  0.00 -2.00  1.00  0.00

     the symmetry operations in each class and the name of the first element:

     E        1
          identity                                               
     2C3      3    4
          120 deg rotation - cryst. axis [0,0,1]                 
     3C2'     2    5    6
          180 deg rotation - cart. axis [1,0,0]                  
     i        7
          inversion                                              
     2S6      9   10
          inv. 120 deg rotation - cryst. axis [0,0,1]            
     3s_d     8   11   12
          inv. 180 deg rotation - cart. axis [1,0,0]             

   Cartesian axes

     site n.     atom                  positions (alat units)
         1           C   tau(   1) = (   0.5000000   0.5773503  -0.0938017  )
         2           C   tau(   2) = (  -0.0000000   0.2886751   0.0938017  )
         3           F   tau(   3) = (   0.5000000   0.5773503  -0.6235043  )
         4           F   tau(   4) = (  -0.0000000   0.2886751   0.6235043  )

   Crystallographic axes

     site n.     atom                  positions (cryst. coord.)
         1           C   tau(   1) = (  0.8333333  0.6666667 -0.0132085  )
         2           C   tau(   2) = (  0.1666667  0.3333333  0.0132085  )
         3           F   tau(   3) = (  0.8333333  0.6666667 -0.0877974  )
         4           F   tau(   4) = (  0.1666667  0.3333333  0.0877974  )

     number of k points=    12  Marzari-Vanderbilt smearing, width (Ry)=  0.0010
                       cart. coord. in units 2pi/alat
        k(    1) = (   0.0000000   0.0000000   0.0000000), wk =   0.0246914
        k(    2) = (   0.0000000   0.1283001   0.0000000), wk =   0.1481481
        k(    3) = (   0.0000000   0.2566001   0.0000000), wk =   0.1481481
        k(    4) = (   0.0000000   0.3849002   0.0000000), wk =   0.1481481
        k(    5) = (   0.0000000   0.5132002   0.0000000), wk =   0.1481481
        k(    6) = (   0.1111111   0.1924501   0.0000000), wk =   0.1481481
        k(    7) = (   0.1111111   0.3207501   0.0000000), wk =   0.2962963
        k(    8) = (   0.1111111   0.4490502   0.0000000), wk =   0.2962963
        k(    9) = (   0.1111111   0.5773503   0.0000000), wk =   0.1481481
        k(   10) = (   0.2222222   0.3849002   0.0000000), wk =   0.1481481
        k(   11) = (   0.2222222   0.5132002   0.0000000), wk =   0.2962963
        k(   12) = (   0.3333333   0.5773503   0.0000000), wk =   0.0493827

                       cryst. coord.
        k(    1) = (   0.0000000   0.0000000   0.0000000), wk =   0.0246914
        k(    2) = (   0.0000000   0.1111111   0.0000000), wk =   0.1481481
        k(    3) = (   0.0000000   0.2222222   0.0000000), wk =   0.1481481
        k(    4) = (   0.0000000   0.3333333   0.0000000), wk =   0.1481481
        k(    5) = (   0.0000000   0.4444444   0.0000000), wk =   0.1481481
        k(    6) = (   0.1111111   0.1111111   0.0000000), wk =   0.1481481
        k(    7) = (   0.1111111   0.2222222   0.0000000), wk =   0.2962963
        k(    8) = (   0.1111111   0.3333333   0.0000000), wk =   0.2962963
        k(    9) = (   0.1111111   0.4444444   0.0000000), wk =   0.1481481
        k(   10) = (   0.2222222   0.2222222   0.0000000), wk =   0.1481481
        k(   11) = (   0.2222222   0.3333333   0.0000000), wk =   0.2962963
        k(   12) = (   0.3333333   0.3333333   0.0000000), wk =   0.0493827

     Dense  grid:    99271 G-vectors     FFT dimensions: (  32,  32, 225)

     Dynamical RAM for                 wfc:       0.71 MB

     Dynamical RAM for     wfc (w. buffer):       2.13 MB

     Dynamical RAM for           str. fact:       0.76 MB

     Dynamical RAM for           local pot:       0.00 MB

     Dynamical RAM for          nlocal pot:       1.51 MB

     Dynamical RAM for                qrad:       0.92 MB

     Dynamical RAM for          rho,v,vnew:       2.47 MB

     Dynamical RAM for               rhoin:       0.82 MB

     Dynamical RAM for            rho*nmix:       6.06 MB

     Dynamical RAM for           G-vectors:       1.61 MB

     Dynamical RAM for          h,s,v(r/c):       0.04 MB

     Dynamical RAM for          <psi|beta>:       0.01 MB

     Dynamical RAM for                 psi:       1.42 MB

     Dynamical RAM for                hpsi:       1.42 MB

     Dynamical RAM for                spsi:       1.42 MB

     Dynamical RAM for      wfcinit/wfcrot:       1.52 MB

     Dynamical RAM for           addusdens:       3.16 MB

     Dynamical RAM for          addusforce:       3.16 MB

     Dynamical RAM for         addusstress:       3.31 MB

     Estimated static dynamical RAM per process >      13.58 MB

     Estimated max dynamical RAM per process >      23.94 MB

     Estimated total dynamical RAM >     453.42 MB

     Initial potential from superposition of free atoms

     starting charge      21.9999, renormalised to      22.0000

     negative rho (up, down):  1.928E-05 0.000E+00
     Starting wfcs are   16 randomized atomic wfcs

     total cpu time spent up to now is        3.6 secs

     Self-consistent Calculation

     iteration #  1     ecut=   100.00 Ry     beta= 0.70
     Davidson diagonalization with overlap

---- Real-time Memory Report at c_bands before calling an iterative solver
            45 MiB given to the printing process from OS
             0 MiB allocation reported by mallinfo(arena+hblkhd)
        251068 MiB available memory on the node where the printing process lives
------------------
     ethr =  1.00E-02,  avg # of iterations =  3.5

     Threshold (ethr) on eigenvalues was too large:
     Diagonalizing with lowered threshold

     Davidson diagonalization with overlap

---- Real-time Memory Report at c_bands before calling an iterative solver
            50 MiB given to the printing process from OS
             0 MiB allocation reported by mallinfo(arena+hblkhd)
        250977 MiB available memory on the node where the printing process lives
------------------
     ethr =  9.46E-04,  avg # of iterations =  1.6

     negative rho (up, down):  1.478E-04 0.000E+00

     total cpu time spent up to now is       28.3 secs

     total energy              =    -120.08754296 Ry
     estimated scf accuracy    <       0.20510659 Ry

     iteration #  2     ecut=   100.00 Ry     beta= 0.70
     Davidson diagonalization with overlap

---- Real-time Memory Report at c_bands before calling an iterative solver
            56 MiB given to the printing process from OS
             0 MiB allocation reported by mallinfo(arena+hblkhd)
        250890 MiB available memory on the node where the printing process lives
------------------
     ethr =  9.32E-04,  avg # of iterations =  2.0

     negative rho (up, down):  1.894E-04 0.000E+00

     total cpu time spent up to now is       39.6 secs

     total energy              =    -120.10026622 Ry
     estimated scf accuracy    <       0.10619868 Ry

     iteration #  3     ecut=   100.00 Ry     beta= 0.70
     Davidson diagonalization with overlap

---- Real-time Memory Report at c_bands before calling an iterative solver
            57 MiB given to the printing process from OS
             0 MiB allocation reported by mallinfo(arena+hblkhd)
        250883 MiB available memory on the node where the printing process lives
------------------
     ethr =  4.83E-04,  avg # of iterations =  3.0

     negative rho (up, down):  2.196E-04 0.000E+00

     total cpu time spent up to now is       52.8 secs

     total energy              =    -120.12980176 Ry
     estimated scf accuracy    <       0.01526163 Ry

     iteration #  4     ecut=   100.00 Ry     beta= 0.70
     Davidson diagonalization with overlap

---- Real-time Memory Report at c_bands before calling an iterative solver
            58 MiB given to the printing process from OS
             0 MiB allocation reported by mallinfo(arena+hblkhd)
        250891 MiB available memory on the node where the printing process lives
------------------
     ethr =  6.94E-05,  avg # of iterations =  6.0

     negative rho (up, down):  2.311E-04 0.000E+00

     total cpu time spent up to now is       73.9 secs

     total energy              =    -120.13235420 Ry
     estimated scf accuracy    <       0.00012557 Ry

     iteration #  5     ecut=   100.00 Ry     beta= 0.70
     Davidson diagonalization with overlap

---- Real-time Memory Report at c_bands before calling an iterative solver
            59 MiB given to the printing process from OS
             0 MiB allocation reported by mallinfo(arena+hblkhd)
        251560 MiB available memory on the node where the printing process lives
------------------
     ethr =  5.71E-07,  avg # of iterations =  7.2

     negative rho (up, down):  2.328E-04 0.000E+00

     total cpu time spent up to now is      101.2 secs

     total energy              =    -120.13239170 Ry
     estimated scf accuracy    <       0.00000686 Ry

     iteration #  6     ecut=   100.00 Ry     beta= 0.70
     Davidson diagonalization with overlap

---- Real-time Memory Report at c_bands before calling an iterative solver
            59 MiB given to the printing process from OS
             0 MiB allocation reported by mallinfo(arena+hblkhd)
        250879 MiB available memory on the node where the printing process lives
------------------
     ethr =  3.12E-08,  avg # of iterations =  2.8

     negative rho (up, down):  2.329E-04 0.000E+00

     total cpu time spent up to now is      115.6 secs

     total energy              =    -120.13239264 Ry
     estimated scf accuracy    <       0.00000025 Ry

     iteration #  7     ecut=   100.00 Ry     beta= 0.70
     Davidson diagonalization with overlap

---- Real-time Memory Report at c_bands before calling an iterative solver
            60 MiB given to the printing process from OS
             0 MiB allocation reported by mallinfo(arena+hblkhd)
        250879 MiB available memory on the node where the printing process lives
------------------
     ethr =  1.13E-09,  avg # of iterations =  2.6

     negative rho (up, down):  2.329E-04 0.000E+00

     total cpu time spent up to now is      128.4 secs

     total energy              =    -120.13239273 Ry
     estimated scf accuracy    <       0.00000005 Ry

     iteration #  8     ecut=   100.00 Ry     beta= 0.70
     Davidson diagonalization with overlap

---- Real-time Memory Report at c_bands before calling an iterative solver
            61 MiB given to the printing process from OS
             0 MiB allocation reported by mallinfo(arena+hblkhd)
        251191 MiB available memory on the node where the printing process lives
------------------
     ethr =  2.20E-10,  avg # of iterations =  2.0

     negative rho (up, down):  2.329E-04 0.000E+00

     total cpu time spent up to now is      139.1 secs

     total energy              =    -120.13239274 Ry
     estimated scf accuracy    <          1.2E-10 Ry

     iteration #  9     ecut=   100.00 Ry     beta= 0.70
     Davidson diagonalization with overlap

---- Real-time Memory Report at c_bands before calling an iterative solver
            62 MiB given to the printing process from OS
             0 MiB allocation reported by mallinfo(arena+hblkhd)
        251543 MiB available memory on the node where the printing process lives
------------------
     ethr =  5.41E-13,  avg # of iterations =  4.3

     negative rho (up, down):  2.329E-04 0.000E+00

     total cpu time spent up to now is      156.1 secs

     total energy              =    -120.13239274 Ry
     estimated scf accuracy    <          5.7E-11 Ry

     iteration # 10     ecut=   100.00 Ry     beta= 0.70
     Davidson diagonalization with overlap

---- Real-time Memory Report at c_bands before calling an iterative solver
            62 MiB given to the printing process from OS
             0 MiB allocation reported by mallinfo(arena+hblkhd)
        250869 MiB available memory on the node where the printing process lives
------------------
     ethr =  2.60E-13,  avg # of iterations =  2.1

     negative rho (up, down):  2.329E-04 0.000E+00

     total cpu time spent up to now is      167.2 secs

     total energy              =    -120.13239274 Ry
     estimated scf accuracy    <          4.8E-12 Ry

     iteration # 11     ecut=   100.00 Ry     beta= 0.70
     Davidson diagonalization with overlap

---- Real-time Memory Report at c_bands before calling an iterative solver
            62 MiB given to the printing process from OS
             0 MiB allocation reported by mallinfo(arena+hblkhd)
        250874 MiB available memory on the node where the printing process lives
------------------
     ethr =  1.00E-13,  avg # of iterations =  1.0

     negative rho (up, down):  2.329E-04 0.000E+00

     total cpu time spent up to now is      175.5 secs

     End of self-consistent calculation

          k = 0.0000 0.0000 0.0000 ( 12369 PWs)   bands (ev):

   -29.3989 -28.9027 -20.1903 -12.8241  -9.8418  -8.0988  -8.0988  -6.9216
    -6.9216  -3.9514  -3.9514  -0.8105   3.4120   3.4120   3.4183

     occupation numbers 
     1.0000   1.0000   1.0000   1.0000   1.0000   1.0000   1.0000   1.0000
     1.0000   1.0000   1.0000   0.0000   0.0000   0.0000   0.0000

          k = 0.0000 0.1283 0.0000 ( 12371 PWs)   bands (ev):

   -29.2930 -28.8270 -20.0007 -12.7256  -9.9381  -8.8923  -8.3603  -7.1331
    -6.9668  -4.6897  -4.2190  -0.2273   3.4808   3.7965   4.1290

     occupation numbers 
     1.0000   1.0000   1.0000   1.0000   1.0000   1.0000   1.0000   1.0000
     1.0000   1.0000   1.0000   0.0000   0.0000   0.0000   0.0000

          k = 0.0000 0.2566 0.0000 ( 12348 PWs)   bands (ev):

   -29.0122 -28.6320 -19.4338 -12.5180 -10.8360 -10.0604  -8.9679  -7.6267
    -7.0987  -6.0277  -4.7091   0.6380   3.7079   4.8189   5.2575

     occupation numbers 
     1.0000   1.0000   1.0000   1.0000   1.0000   1.0000   1.0000   1.0000
     1.0000   1.0000   1.0000   0.0000   0.0000   0.0000   0.0000

          k = 0.0000 0.3849 0.0000 ( 12418 PWs)   bands (ev):

   -28.6646 -28.4076 -18.4952 -13.3508 -11.8013 -10.4600  -9.5837  -8.1011
    -7.2606  -7.1932  -5.1000   1.1696   4.1207   5.8409   6.8921

     occupation numbers 
     1.0000   1.0000   1.0000   1.0000   1.0000   1.0000   1.0000   1.0000
     1.0000   1.0000   1.0000   0.0000   0.0000   0.0000   0.0000

          k = 0.0000 0.5132 0.0000 ( 12388 PWs)   bands (ev):

   -28.4072 -28.2718 -17.2311 -15.2475 -11.6309 -10.7445  -9.9504  -8.3902
    -7.8382  -7.3683  -5.3052   1.4264   4.5375   5.1418   8.6178

     occupation numbers 
     1.0000   1.0000   1.0000   1.0000   1.0000   1.0000   1.0000   1.0000
     1.0000   1.0000   1.0000   0.0000   0.0000   0.0000   0.0000

          k = 0.1111 0.1925 0.0000 ( 12348 PWs)   bands (ev):

   -29.0994 -28.6915 -19.6223 -12.5641 -10.1639 -10.0510  -8.9105  -7.3692
    -7.1910  -5.5361  -4.7466   0.5659   3.9636   4.5107   4.6532

     occupation numbers 
     1.0000   1.0000   1.0000   1.0000   1.0000   1.0000   1.0000   1.0000
     1.0000   1.0000   1.0000   0.0000   0.0000   0.0000   0.0000

          k = 0.1111 0.3208 0.0000 ( 12375 PWs)   bands (ev):

   -28.7838 -28.4804 -18.8680 -12.6229 -11.5422 -10.5475  -9.6317  -7.8407
    -7.4893  -6.5316  -5.3027   1.4967   4.4696   5.7314   6.1692

     occupation numbers 
     1.0000   1.0000   1.0000   1.0000   1.0000   1.0000   1.0000   1.0000
     1.0000   1.0000   1.0000   0.0000   0.0000   0.0000   0.0000

          k = 0.1111 0.4491 0.0000 ( 12403 PWs)   bands (ev):

   -28.4771 -28.2990 -17.7496 -14.2296 -11.6896 -10.8164 -10.2339  -8.3215
    -7.7176  -7.2428  -5.6124   2.1654   4.7799   5.6231   7.8886

     occupation numbers 
     1.0000   1.0000   1.0000   1.0000   1.0000   1.0000   1.0000   1.0000
     1.0000   1.0000   1.0000   0.0000   0.0000   0.0000   0.0000

          k = 0.1111 0.5774 0.0000 ( 12396 PWs)   bands (ev):

   -28.3372 -28.2392 -16.6306 -15.6640 -11.6355 -10.7680 -10.5843  -8.5093
    -7.8365  -7.4634  -5.7129   2.4683   5.0000   5.0005   8.2645

     occupation numbers 
     1.0000   1.0000   1.0000   1.0000   1.0000   1.0000   1.0000   1.0000
     1.0000   1.0000   1.0000   0.0000   0.0000   0.0000   0.0000

          k = 0.2222 0.3849 0.0000 ( 12402 PWs)   bands (ev):

   -28.5062 -28.3101 -17.9275 -13.4695 -11.6285 -11.4802 -10.2554  -8.2752
    -7.8145  -6.9052  -6.0340   2.7385   5.8177   6.5565   6.6847

     occupation numbers 
     1.0000   1.0000   1.0000   1.0000   1.0000   1.0000   1.0000   1.0000
     1.0000   1.0000   1.0000   0.0000   0.0000   0.0000   0.0000

          k = 0.2222 0.5132 0.0000 ( 12443 PWs)   bands (ev):

   -28.3011 -28.2132 -16.6709 -14.8667 -12.3422 -11.1691 -10.6660  -8.6636
    -7.7339  -7.3805  -6.3910   3.7616   5.3462   6.4904   7.4577

     occupation numbers 
     1.0000   1.0000   1.0000   1.0000   1.0000   1.0000   1.0000   1.0000
     1.0000   1.0000   1.0000   0.0000   0.0000   0.0000   0.0000

          k = 0.3333 0.5774 0.0000 ( 12414 PWs)   bands (ev):

   -28.2053 -28.2053 -15.5351 -15.5351 -13.1926 -10.9155 -10.9155  -8.8358
    -7.5000  -7.5000  -6.8610   4.8196   4.8196   7.0306   8.4971

     occupation numbers 
     1.0000   1.0000   1.0000   1.0000   1.0000   1.0000   1.0000   1.0000
     1.0000   1.0000   1.0000   0.0000   0.0000   0.0000   0.0000

     the Fermi energy is    -3.2114 ev

!    total energy              =    -120.13239274 Ry
     estimated scf accuracy    <          5.4E-14 Ry
     smearing contrib. (-TS)   =       0.00000000 Ry
     internal energy E=F+TS    =    -120.13239274 Ry

     The total energy is F=E-TS. E is the sum of the following terms:
     one-electron contribution =    -975.19559167 Ry
     hartree contribution      =     493.35914592 Ry
     xc contribution           =     -25.85817328 Ry
     ewald contribution        =     387.56222630 Ry

     convergence has been achieved in  11 iterations

     negative rho (up, down):  2.329E-04 0.000E+00

     Forces acting on atoms (cartesian axes, Ry/au):

     atom    1 type  1   force =     0.00000000    0.00000000   -0.00036688
     atom    2 type  1   force =     0.00000000    0.00000000    0.00036688
     atom    3 type  2   force =     0.00000000   -0.00000000   -0.00005638
     atom    4 type  2   force =     0.00000000    0.00000000    0.00005638
     The non-local contrib.  to forces
     atom    1 type  1   force =     0.00000000    0.00000000   -0.39802913
     atom    2 type  1   force =     0.00000000   -0.00000000    0.39802913
     atom    3 type  2   force =     0.00000000    0.00000000    2.50699490
     atom    4 type  2   force =    -0.00000000    0.00000000   -2.50699490
     The ionic contribution  to forces
     atom    1 type  1   force =    -0.00000001    0.00000000   -1.16488099
     atom    2 type  1   force =     0.00000001   -0.00000000    1.16488099
     atom    3 type  2   force =    -0.00000000    0.00000000  -48.74159951
     atom    4 type  2   force =     0.00000000   -0.00000000   48.74159951
     The local contribution  to forces
     atom    1 type  1   force =    -0.00000000   -0.00000000    1.55937393
     atom    2 type  1   force =     0.00000001   -0.00000001   -1.55937393
     atom    3 type  2   force =     0.00000001    0.00000002   46.23454766
     atom    4 type  2   force =     0.00000017   -0.00000008  -46.23454770
     The core correction contribution to forces
     atom    1 type  1   force =    -0.00000000   -0.00000000    0.00316920
     atom    2 type  1   force =    -0.00000000   -0.00000000   -0.00316920
     atom    3 type  2   force =     0.00000000    0.00000000    0.00000000
     atom    4 type  2   force =     0.00000000    0.00000000    0.00000000
     The Hubbard contrib.    to forces
     atom    1 type  1   force =     0.00000000    0.00000000    0.00000000
     atom    2 type  1   force =     0.00000000    0.00000000    0.00000000
     atom    3 type  2   force =     0.00000000    0.00000000    0.00000000
     atom    4 type  2   force =     0.00000000    0.00000000    0.00000000
     The SCF correction term to forces
     atom    1 type  1   force =     0.00000000    0.00000000    0.00000011
     atom    2 type  1   force =     0.00000000    0.00000000   -0.00000011
     atom    3 type  2   force =     0.00000000    0.00000000    0.00000055
     atom    4 type  2   force =    -0.00000000    0.00000000   -0.00000055

     Total force =     0.000525     Total SCF correction =     0.000001


     Computing stress (Cartesian axis) and pressure


     negative rho (up, down):  2.329E-04 0.000E+00
          total   stress  (Ry/bohr**3)                   (kbar)     P=        0.22
   0.00000195  -0.00000000   0.00000000            0.29       -0.00        0.00
  -0.00000000   0.00000195   0.00000000           -0.00        0.29        0.00
   0.00000000   0.00000000   0.00000065            0.00        0.00        0.10

     kinetic stress (kbar)   6754.35     -0.00      0.00
                               -0.00   6754.35     -0.00
                                0.00     -0.00   6003.93

     local   stress (kbar)-188575.76      0.00     -0.00
                                0.00-188575.76      0.00
                               -0.00      0.00 183501.34

     nonloc. stress (kbar)    873.92     -0.00      0.00
                               -0.00    873.92      0.00
                                0.00      0.00    678.24

     hartree stress (kbar)  94249.98      0.00     -0.00
                                0.00  94249.98     -0.00
                               -0.00     -0.00 -89587.26

     exc-cor stress (kbar)  -1583.31     -0.00      0.00
                               -0.00  -1583.31     -0.00
                                0.00     -0.00  -1573.07

     corecor stress (kbar)    -54.53      0.00     -0.00
                                0.00    -54.53     -0.00
                               -0.00     -0.00    -53.44

     ewald   stress (kbar)  88335.65     -0.00      0.00
                               -0.00  88335.65     -0.00
                                0.00     -0.00 -98969.63

     hubbard stress (kbar)      0.00      0.00      0.00
                                0.00      0.00      0.00
                                0.00      0.00      0.00

     DFT-D   stress (kbar)      0.00      0.00      0.00
                                0.00      0.00      0.00
                                0.00      0.00      0.00

     XDM     stress (kbar)      0.00      0.00      0.00
                                0.00      0.00      0.00
                                0.00      0.00      0.00

     dft-nl  stress (kbar)      0.00      0.00      0.00
                                0.00      0.00      0.00
                                0.00      0.00      0.00

     TS-vdW  stress (kbar)      0.00      0.00      0.00
                                0.00      0.00      0.00
                                0.00      0.00      0.00

     MDB     stress (kbar)      0.00      0.00      0.00
                                0.00      0.00      0.00
                                0.00      0.00      0.00

     3D-RISM stress (kbar)      0.00      0.00      0.00
                                0.00      0.00      0.00
                                0.00      0.00      0.00


     Writing all to output data dir ../tmp/fgc.save/

     init_run     :      1.32s CPU      3.31s WALL (       1 calls)
     electrons    :     83.86s CPU    172.01s WALL (       1 calls)
     forces       :      1.24s CPU      2.63s WALL (       1 calls)
     stress       :      0.99s CPU      1.91s WALL (       1 calls)

     Called by init_run:
     wfcinit      :      0.94s CPU      2.68s WALL (       1 calls)
     wfcinit:atom :      0.00s CPU      0.00s WALL (       2 calls)
     wfcinit:wfcr :      0.93s CPU      2.67s WALL (       2 calls)
     potinit      :      0.06s CPU      0.07s WALL (       1 calls)
     hinit0       :      0.19s CPU      0.20s WALL (       1 calls)

     Called by electrons:
     c_bands      :     72.80s CPU    150.41s WALL (      12 calls)
     sum_band     :      7.95s CPU     15.62s WALL (      12 calls)
     v_of_rho     :      0.49s CPU      1.30s WALL (      12 calls)
     v_h          :      0.01s CPU      0.01s WALL (      12 calls)
     v_xc         :      0.54s CPU      1.34s WALL (      14 calls)
     newd         :      1.93s CPU      3.98s WALL (      12 calls)
     mix_rho      :      0.08s CPU      0.10s WALL (      12 calls)

     Called by c_bands:
     init_us_2    :      0.02s CPU      0.04s WALL (      54 calls)
     init_us_2:cp :      0.02s CPU      0.04s WALL (      54 calls)
     cegterg      :     52.34s CPU    109.58s WALL (      24 calls)

     Called by sum_band:
     sum_band:wei :      0.15s CPU      0.15s WALL (      12 calls)
     sum_band:loo :      4.27s CPU      8.73s WALL (      12 calls)
     sum_band:buf :      0.00s CPU      0.01s WALL (      24 calls)
     sum_band:ini :      0.01s CPU      0.01s WALL (      24 calls)
     sum_band:cal :      2.73s CPU      5.41s WALL (      24 calls)
     sum_band:bec :      0.00s CPU      0.00s WALL (      24 calls)
     addusdens    :      0.99s CPU      3.38s WALL (      12 calls)
     addusd:skk   :      0.00s CPU      0.00s WALL (      24 calls)
     addusd:dgemm :      0.34s CPU      1.74s WALL (      24 calls)
     addusd:qvan2 :      0.01s CPU      0.02s WALL (      24 calls)

     Called by *egterg:
     cdiaghg      :      6.03s CPU     11.03s WALL (     108 calls)
     cegterg:over :     13.56s CPU     23.29s WALL (      86 calls)
     cegterg:upda :      1.28s CPU      3.55s WALL (      86 calls)
     cegterg:last :      0.81s CPU      1.95s WALL (      49 calls)
     h_psi        :     20.54s CPU     51.66s WALL (     112 calls)
     s_psi        :      0.38s CPU      0.99s WALL (     112 calls)
     g_psi        :      0.01s CPU      0.01s WALL (      86 calls)

     Called by h_psi:
     h_psi:calbec :     10.29s CPU     21.91s WALL (     112 calls)
     vloc_psi     :      8.59s CPU     24.42s WALL (     112 calls)
     add_vuspsi   :      1.66s CPU      5.33s WALL (     112 calls)

     General routines
     calbec       :     14.00s CPU     29.67s WALL (     146 calls)
     fft          :      0.49s CPU      1.28s WALL (     158 calls)
     ffts         :      0.49s CPU      0.49s WALL (      12 calls)
     fftw         :     10.00s CPU     27.48s WALL (    2294 calls)

     Parallel routines

     PWSCF        :   1m27.59s CPU   3m 0.57s WALL


   This run was terminated on:   3:17:38  24Feb2024            

=------------------------------------------------------------------------------=
   JOB DONE.
=------------------------------------------------------------------------------=
