
     Program PWSCF v.7.1 starts on 24Feb2024 at  3:24:43 

     This program is part of the open-source Quantum ESPRESSO suite
     for quantum simulation of materials; please cite
         "P. Giannozzi et al., J. Phys.:Condens. Matter 21 395502 (2009);
         "P. Giannozzi et al., J. Phys.:Condens. Matter 29 465901 (2017);
         "P. Giannozzi et al., J. Chem. Phys. 152 154105 (2020);
          URL http://www.quantum-espresso.org", 
     in publications or presentations arising from this work. More details at
     http://www.quantum-espresso.org/quote

     Parallel version (MPI), running on    24 processors

     MPI processes distributed on     1 nodes
     251361 MiB available memory on the printing compute node when the environment starts

     Reading input from ecut.400.in

     Current dimensions of program PWSCF are:
     Max number of different atomic species (ntypx) = 10
     Max number of k-points (npk) =  40000
     Max angular momentum in pseudopotentials (lmaxx) =  4

     K-points division:     npool     =       6
     R & G space division:  proc/nbgrp/npool/nimage =       4
     Subspace diagonalization in iterative solution of the eigenvalue problem:
     a serial algorithm will be used


     Parallelization info
     --------------------
     sticks:   dense  smooth     PW     G-vecs:    dense   smooth      PW
     Min         669     669    183               198299   198299   28083
     Max         670     670    184               198326   198326   28094
     Sum        2677    2677    733               793225   793225  112349

     Using Slab Decomposition



     bravais-lattice index     =            4
     lattice parameter (alat)  =       4.9229  a.u.
     unit-cell volume          =     733.7343 (a.u.)^3
     number of atoms/cell      =            4
     number of atomic types    =            2
     number of electrons       =        22.00
     number of Kohn-Sham states=           15
     kinetic-energy cutoff     =     400.0000  Ry
     charge density cutoff     =    1600.0000  Ry
     scf convergence threshold =      1.0E-12
     mixing beta               =       0.7000
     number of iterations used =            8  plain     mixing
     Exchange-correlation=  SLA  PW   PBX  PBC
                           (   1   4   3   4   0   0   0)

     celldm(1)=   4.922852  celldm(2)=   0.000000  celldm(3)=   7.101627
     celldm(4)=   0.000000  celldm(5)=   0.000000  celldm(6)=   0.000000

     crystal axes: (cart. coord. in units of alat)
               a(1) = (   1.000000   0.000000   0.000000 )  
               a(2) = (  -0.500000   0.866025   0.000000 )  
               a(3) = (   0.000000   0.000000   7.101627 )  

     reciprocal axes: (cart. coord. in units 2 pi/alat)
               b(1) = (  1.000000  0.577350 -0.000000 )  
               b(2) = (  0.000000  1.154701  0.000000 )  
               b(3) = (  0.000000 -0.000000  0.140813 )  


     PseudoPot. # 1 for C  read from file:
     ../pseudo/c_pbe_v1.2.uspp.F.UPF
     MD5 check sum: d1aef80898a10debaa0f26306b886e00
     Pseudo is Ultrasoft + core correction, Zval =  4.0
     Generated by new atomic code, or converted to UPF format
     Using radial grid of  721 points,  4 beta functions with: 
                l(1) =   0
                l(2) =   0
                l(3) =   1
                l(4) =   1
     Q(r) pseudized with  8 coefficients,  rinner =    1.100   1.100   1.100


     PseudoPot. # 2 for F  read from file:
     ../pseudo/f_pbe_v1.4.uspp.F.UPF
     MD5 check sum: 4c38b6a325caf53ec0e86aed9459de46
     Pseudo is Ultrasoft, Zval =  7.0
     Generated by new atomic code, or converted to UPF format
     Using radial grid of  799 points,  4 beta functions with: 
                l(1) =   0
                l(2) =   0
                l(3) =   1
                l(4) =   1
     Q(r) pseudized with  8 coefficients,  rinner =    0.950   0.950   0.950


     atomic species   valence    mass     pseudopotential
        C              4.00    12.01070     C ( 1.00)
        F              7.00    18.99840     F ( 1.00)

     12 Sym. Ops., with inversion, found ( 8 have fractional translation)


                                    s                        frac. trans.

      isym =  1     identity                                     

 cryst.   s( 1) = (     1          0          0      )
                  (     0          1          0      )
                  (     0          0          1      )

 cart.    s( 1) = (  1.0000000  0.0000000  0.0000000 )
                  (  0.0000000  1.0000000  0.0000000 )
                  (  0.0000000  0.0000000  1.0000000 )


      isym =  2     180 deg rotation - cart. axis [1,0,0]        

 cryst.   s( 2) = (     1          0          0      )
                  (    -1         -1          0      )
                  (     0          0         -1      )

 cart.    s( 2) = (  1.0000000  0.0000000  0.0000000 )
                  (  0.0000000 -1.0000000  0.0000000 )
                  (  0.0000000  0.0000000 -1.0000000 )


      isym =  3     120 deg rotation - cryst. axis [0,0,1]       

 cryst.   s( 3) = (     0          1          0      )    f =( -0.5000000 )
                  (    -1         -1          0      )       ( -0.5000000 )
                  (     0          0          1      )       (  0.0000000 )

 cart.    s( 3) = ( -0.5000000 -0.8660254  0.0000000 )    f =( -0.2500000 )
                  (  0.8660254 -0.5000000  0.0000000 )       ( -0.4330127 )
                  (  0.0000000  0.0000000  1.0000000 )       (  0.0000000 )


      isym =  4     120 deg rotation - cryst. axis [0,0,-1]      

 cryst.   s( 4) = (    -1         -1          0      )    f =(  0.0000000 )
                  (     1          0          0      )       ( -0.5000000 )
                  (     0          0          1      )       (  0.0000000 )

 cart.    s( 4) = ( -0.5000000  0.8660254  0.0000000 )    f =(  0.2500000 )
                  ( -0.8660254 -0.5000000  0.0000000 )       ( -0.4330127 )
                  (  0.0000000  0.0000000  1.0000000 )       (  0.0000000 )


      isym =  5     180 deg rotation - cryst. axis [0,1,0]       

 cryst.   s( 5) = (    -1         -1          0      )    f =(  0.0000000 )
                  (     0          1          0      )       ( -0.5000000 )
                  (     0          0         -1      )       (  0.0000000 )

 cart.    s( 5) = ( -0.5000000 -0.8660254  0.0000000 )    f =(  0.2500000 )
                  ( -0.8660254  0.5000000  0.0000000 )       ( -0.4330127 )
                  (  0.0000000  0.0000000 -1.0000000 )       (  0.0000000 )


      isym =  6     180 deg rotation - cryst. axis [1,1,0]       

 cryst.   s( 6) = (     0          1          0      )    f =(  0.5000000 )
                  (     1          0          0      )       (  0.5000000 )
                  (     0          0         -1      )       (  0.0000000 )

 cart.    s( 6) = ( -0.5000000  0.8660254  0.0000000 )    f =(  0.2500000 )
                  (  0.8660254  0.5000000  0.0000000 )       (  0.4330127 )
                  (  0.0000000  0.0000000 -1.0000000 )       (  0.0000000 )


      isym =  7     inversion                                    

 cryst.   s( 7) = (    -1          0          0      )
                  (     0         -1          0      )
                  (     0          0         -1      )

 cart.    s( 7) = ( -1.0000000  0.0000000  0.0000000 )
                  (  0.0000000 -1.0000000  0.0000000 )
                  (  0.0000000  0.0000000 -1.0000000 )


      isym =  8     inv. 180 deg rotation - cart. axis [1,0,0]   

 cryst.   s( 8) = (    -1          0          0      )
                  (     1          1          0      )
                  (     0          0          1      )

 cart.    s( 8) = ( -1.0000000  0.0000000  0.0000000 )
                  (  0.0000000  1.0000000  0.0000000 )
                  (  0.0000000  0.0000000  1.0000000 )


      isym =  9     inv. 120 deg rotation - cryst. axis [0,0,1]  

 cryst.   s( 9) = (     0         -1          0      )    f =(  0.5000000 )
                  (     1          1          0      )       ( -0.5000000 )
                  (     0          0         -1      )       (  0.0000000 )

 cart.    s( 9) = (  0.5000000  0.8660254  0.0000000 )    f =(  0.7500000 )
                  ( -0.8660254  0.5000000  0.0000000 )       ( -0.4330127 )
                  (  0.0000000  0.0000000 -1.0000000 )       (  0.0000000 )


      isym = 10     inv. 120 deg rotation - cryst. axis [0,0,-1] 

 cryst.   s(10) = (     1          1          0      )    f =(  0.0000000 )
                  (    -1          0          0      )       (  0.5000000 )
                  (     0          0         -1      )       (  0.0000000 )

 cart.    s(10) = (  0.5000000 -0.8660254  0.0000000 )    f =( -0.2500000 )
                  (  0.8660254  0.5000000  0.0000000 )       (  0.4330127 )
                  (  0.0000000  0.0000000 -1.0000000 )       (  0.0000000 )


      isym = 11     inv. 180 deg rotation - cryst. axis [0,1,0]  

 cryst.   s(11) = (     1          1          0      )    f =(  0.0000000 )
                  (     0         -1          0      )       ( -0.5000000 )
                  (     0          0          1      )       (  0.0000000 )

 cart.    s(11) = (  0.5000000  0.8660254  0.0000000 )    f =(  0.2500000 )
                  (  0.8660254 -0.5000000  0.0000000 )       ( -0.4330127 )
                  (  0.0000000  0.0000000  1.0000000 )       (  0.0000000 )


      isym = 12     inv. 180 deg rotation - cryst. axis [1,1,0]  

 cryst.   s(12) = (     0         -1          0      )    f =( -0.5000000 )
                  (    -1          0          0      )       ( -0.5000000 )
                  (     0          0          1      )       (  0.0000000 )

 cart.    s(12) = (  0.5000000 -0.8660254  0.0000000 )    f =( -0.2500000 )
                  ( -0.8660254 -0.5000000  0.0000000 )       ( -0.4330127 )
                  (  0.0000000  0.0000000  1.0000000 )       (  0.0000000 )


     point group D_3d (-3m) 
     there are  6 classes
     the character table:

       E     2C3   3C2'  i     2S6   3s_d 
A_1g   1.00  1.00  1.00  1.00  1.00  1.00
A_2g   1.00  1.00 -1.00  1.00  1.00 -1.00
E_g    2.00 -1.00  0.00  2.00 -1.00  0.00
A_1u   1.00  1.00  1.00 -1.00 -1.00 -1.00
A_2u   1.00  1.00 -1.00 -1.00 -1.00  1.00
E_u    2.00 -1.00  0.00 -2.00  1.00  0.00

     the symmetry operations in each class and the name of the first element:

     E        1
          identity                                               
     2C3      3    4
          120 deg rotation - cryst. axis [0,0,1]                 
     3C2'     2    5    6
          180 deg rotation - cart. axis [1,0,0]                  
     i        7
          inversion                                              
     2S6      9   10
          inv. 120 deg rotation - cryst. axis [0,0,1]            
     3s_d     8   11   12
          inv. 180 deg rotation - cart. axis [1,0,0]             

   Cartesian axes

     site n.     atom                  positions (alat units)
         1           C   tau(   1) = (   0.5000000   0.5773503  -0.0938017  )
         2           C   tau(   2) = (  -0.0000000   0.2886751   0.0938017  )
         3           F   tau(   3) = (   0.5000000   0.5773503  -0.6235043  )
         4           F   tau(   4) = (  -0.0000000   0.2886751   0.6235043  )

   Crystallographic axes

     site n.     atom                  positions (cryst. coord.)
         1           C   tau(   1) = (  0.8333333  0.6666667 -0.0132085  )
         2           C   tau(   2) = (  0.1666667  0.3333333  0.0132085  )
         3           F   tau(   3) = (  0.8333333  0.6666667 -0.0877974  )
         4           F   tau(   4) = (  0.1666667  0.3333333  0.0877974  )

     number of k points=    12  Marzari-Vanderbilt smearing, width (Ry)=  0.0010
                       cart. coord. in units 2pi/alat
        k(    1) = (   0.0000000   0.0000000   0.0000000), wk =   0.0246914
        k(    2) = (   0.0000000   0.1283001   0.0000000), wk =   0.1481481
        k(    3) = (   0.0000000   0.2566001   0.0000000), wk =   0.1481481
        k(    4) = (   0.0000000   0.3849002   0.0000000), wk =   0.1481481
        k(    5) = (   0.0000000   0.5132002   0.0000000), wk =   0.1481481
        k(    6) = (   0.1111111   0.1924501   0.0000000), wk =   0.1481481
        k(    7) = (   0.1111111   0.3207501   0.0000000), wk =   0.2962963
        k(    8) = (   0.1111111   0.4490502   0.0000000), wk =   0.2962963
        k(    9) = (   0.1111111   0.5773503   0.0000000), wk =   0.1481481
        k(   10) = (   0.2222222   0.3849002   0.0000000), wk =   0.1481481
        k(   11) = (   0.2222222   0.5132002   0.0000000), wk =   0.2962963
        k(   12) = (   0.3333333   0.5773503   0.0000000), wk =   0.0493827

                       cryst. coord.
        k(    1) = (   0.0000000   0.0000000   0.0000000), wk =   0.0246914
        k(    2) = (   0.0000000   0.1111111   0.0000000), wk =   0.1481481
        k(    3) = (   0.0000000   0.2222222   0.0000000), wk =   0.1481481
        k(    4) = (   0.0000000   0.3333333   0.0000000), wk =   0.1481481
        k(    5) = (   0.0000000   0.4444444   0.0000000), wk =   0.1481481
        k(    6) = (   0.1111111   0.1111111   0.0000000), wk =   0.1481481
        k(    7) = (   0.1111111   0.2222222   0.0000000), wk =   0.2962963
        k(    8) = (   0.1111111   0.3333333   0.0000000), wk =   0.2962963
        k(    9) = (   0.1111111   0.4444444   0.0000000), wk =   0.1481481
        k(   10) = (   0.2222222   0.2222222   0.0000000), wk =   0.1481481
        k(   11) = (   0.2222222   0.3333333   0.0000000), wk =   0.2962963
        k(   12) = (   0.3333333   0.3333333   0.0000000), wk =   0.0493827

     Dense  grid:   793225 G-vectors     FFT dimensions: (  64,  64, 450)

     Dynamical RAM for                 wfc:       5.67 MB

     Dynamical RAM for     wfc (w. buffer):      17.02 MB

     Dynamical RAM for           str. fact:       6.05 MB

     Dynamical RAM for           local pot:       0.00 MB

     Dynamical RAM for          nlocal pot:      12.10 MB

     Dynamical RAM for                qrad:       1.83 MB

     Dynamical RAM for          rho,v,vnew:      19.67 MB

     Dynamical RAM for               rhoin:       6.56 MB

     Dynamical RAM for            rho*nmix:      48.41 MB

     Dynamical RAM for           G-vectors:      12.86 MB

     Dynamical RAM for          h,s,v(r/c):       0.04 MB

     Dynamical RAM for          <psi|beta>:       0.01 MB

     Dynamical RAM for                 psi:      11.34 MB

     Dynamical RAM for                hpsi:      11.34 MB

     Dynamical RAM for                spsi:      11.34 MB

     Dynamical RAM for      wfcinit/wfcrot:      12.11 MB

     Dynamical RAM for           addusdens:      25.21 MB

     Dynamical RAM for          addusforce:      25.22 MB

     Dynamical RAM for         addusstress:      26.48 MB

     Estimated static dynamical RAM per process >     102.82 MB

     Estimated max dynamical RAM per process >     185.31 MB

     Estimated total dynamical RAM >       3.40 GB

     Initial potential from superposition of free atoms

     starting charge      21.9999, renormalised to      22.0000

     negative rho (up, down):  3.352E-04 0.000E+00
     Starting wfcs are   16 randomized atomic wfcs

     total cpu time spent up to now is        6.6 secs

     Self-consistent Calculation

     iteration #  1     ecut=   400.00 Ry     beta= 0.70
     Davidson diagonalization with overlap

---- Real-time Memory Report at c_bands before calling an iterative solver
           152 MiB given to the printing process from OS
             0 MiB allocation reported by mallinfo(arena+hblkhd)
        248604 MiB available memory on the node where the printing process lives
------------------
     ethr =  1.00E-02,  avg # of iterations =  3.8

     Threshold (ethr) on eigenvalues was too large:
     Diagonalizing with lowered threshold

     Davidson diagonalization with overlap

---- Real-time Memory Report at c_bands before calling an iterative solver
           176 MiB given to the printing process from OS
             0 MiB allocation reported by mallinfo(arena+hblkhd)
        248969 MiB available memory on the node where the printing process lives
------------------
     ethr =  9.44E-04,  avg # of iterations =  1.5

     negative rho (up, down):  9.589E-05 0.000E+00

     total cpu time spent up to now is       38.4 secs

     total energy              =    -120.08942187 Ry
     estimated scf accuracy    <       0.20501539 Ry

     iteration #  2     ecut=   400.00 Ry     beta= 0.70
     Davidson diagonalization with overlap

---- Real-time Memory Report at c_bands before calling an iterative solver
           218 MiB given to the printing process from OS
             0 MiB allocation reported by mallinfo(arena+hblkhd)
        248513 MiB available memory on the node where the printing process lives
------------------
     ethr =  9.32E-04,  avg # of iterations =  2.0

     negative rho (up, down):  5.350E-05 0.000E+00

     total cpu time spent up to now is       52.3 secs

     total energy              =    -120.10234383 Ry
     estimated scf accuracy    <       0.10558382 Ry

     iteration #  3     ecut=   400.00 Ry     beta= 0.70
     Davidson diagonalization with overlap

---- Real-time Memory Report at c_bands before calling an iterative solver
           226 MiB given to the printing process from OS
             0 MiB allocation reported by mallinfo(arena+hblkhd)
        248847 MiB available memory on the node where the printing process lives
------------------
     ethr =  4.80E-04,  avg # of iterations =  3.0

     negative rho (up, down):  1.300E-05 0.000E+00

     total cpu time spent up to now is       70.3 secs

     total energy              =    -120.13169603 Ry
     estimated scf accuracy    <       0.01502594 Ry

     iteration #  4     ecut=   400.00 Ry     beta= 0.70
     Davidson diagonalization with overlap

---- Real-time Memory Report at c_bands before calling an iterative solver
           232 MiB given to the printing process from OS
             0 MiB allocation reported by mallinfo(arena+hblkhd)
        248167 MiB available memory on the node where the printing process lives
------------------
     ethr =  6.83E-05,  avg # of iterations =  4.5

     negative rho (up, down):  4.247E-06 0.000E+00

     total cpu time spent up to now is       92.7 secs

     total energy              =    -120.13419839 Ry
     estimated scf accuracy    <       0.00012521 Ry

     iteration #  5     ecut=   400.00 Ry     beta= 0.70
     Davidson diagonalization with overlap

---- Real-time Memory Report at c_bands before calling an iterative solver
           238 MiB given to the printing process from OS
             0 MiB allocation reported by mallinfo(arena+hblkhd)
        247801 MiB available memory on the node where the printing process lives
------------------
     ethr =  5.69E-07,  avg # of iterations =  7.3

     negative rho (up, down):  3.291E-06 0.000E+00

     total cpu time spent up to now is      124.2 secs

     total energy              =    -120.13423682 Ry
     estimated scf accuracy    <       0.00000644 Ry

     iteration #  6     ecut=   400.00 Ry     beta= 0.70
     Davidson diagonalization with overlap

---- Real-time Memory Report at c_bands before calling an iterative solver
           244 MiB given to the printing process from OS
             0 MiB allocation reported by mallinfo(arena+hblkhd)
        248136 MiB available memory on the node where the printing process lives
------------------
     ethr =  2.93E-08,  avg # of iterations =  2.0

     negative rho (up, down):  3.284E-06 0.000E+00

     total cpu time spent up to now is      138.5 secs

     total energy              =    -120.13423772 Ry
     estimated scf accuracy    <       0.00000024 Ry

     iteration #  7     ecut=   400.00 Ry     beta= 0.70
     Davidson diagonalization with overlap

---- Real-time Memory Report at c_bands before calling an iterative solver
           250 MiB given to the printing process from OS
             0 MiB allocation reported by mallinfo(arena+hblkhd)
        248103 MiB available memory on the node where the printing process lives
------------------
     ethr =  1.09E-09,  avg # of iterations =  2.5

     negative rho (up, down):  3.288E-06 0.000E+00

     total cpu time spent up to now is      155.1 secs

     total energy              =    -120.13423781 Ry
     estimated scf accuracy    <       0.00000005 Ry

     iteration #  8     ecut=   400.00 Ry     beta= 0.70
     Davidson diagonalization with overlap

---- Real-time Memory Report at c_bands before calling an iterative solver
           256 MiB given to the printing process from OS
             0 MiB allocation reported by mallinfo(arena+hblkhd)
        248040 MiB available memory on the node where the printing process lives
------------------
     ethr =  2.06E-10,  avg # of iterations =  2.1

     negative rho (up, down):  3.290E-06 0.000E+00

     total cpu time spent up to now is      169.0 secs

     total energy              =    -120.13423782 Ry
     estimated scf accuracy    <          1.4E-10 Ry

     iteration #  9     ecut=   400.00 Ry     beta= 0.70
     Davidson diagonalization with overlap

---- Real-time Memory Report at c_bands before calling an iterative solver
           262 MiB given to the printing process from OS
             0 MiB allocation reported by mallinfo(arena+hblkhd)
        248719 MiB available memory on the node where the printing process lives
------------------
     ethr =  6.53E-13,  avg # of iterations =  3.9

     negative rho (up, down):  3.290E-06 0.000E+00

     total cpu time spent up to now is      190.0 secs

     total energy              =    -120.13423782 Ry
     estimated scf accuracy    <          1.9E-11 Ry

     iteration # 10     ecut=   400.00 Ry     beta= 0.70
     Davidson diagonalization with overlap

---- Real-time Memory Report at c_bands before calling an iterative solver
           268 MiB given to the printing process from OS
             0 MiB allocation reported by mallinfo(arena+hblkhd)
        247693 MiB available memory on the node where the printing process lives
------------------
     ethr =  1.00E-13,  avg # of iterations =  2.0

     negative rho (up, down):  3.291E-06 0.000E+00

     total cpu time spent up to now is      204.3 secs

     total energy              =    -120.13423782 Ry
     estimated scf accuracy    <          1.4E-12 Ry

     iteration # 11     ecut=   400.00 Ry     beta= 0.70
     Davidson diagonalization with overlap

---- Real-time Memory Report at c_bands before calling an iterative solver
           268 MiB given to the printing process from OS
             0 MiB allocation reported by mallinfo(arena+hblkhd)
        247984 MiB available memory on the node where the printing process lives
------------------
     ethr =  1.00E-13,  avg # of iterations =  1.0

     negative rho (up, down):  3.291E-06 0.000E+00

     total cpu time spent up to now is      214.8 secs

     End of self-consistent calculation

          k = 0.0000 0.0000 0.0000 ( 99271 PWs)   bands (ev):

   -29.3982 -28.9023 -20.1882 -12.8243  -9.8424  -8.0997  -8.0997  -6.9220
    -6.9220  -3.9533  -3.9533  -0.8110   3.4085   3.4085   3.5973

     occupation numbers 
     1.0000   1.0000   1.0000   1.0000   1.0000   1.0000   1.0000   1.0000
     1.0000   1.0000   1.0000   0.0000   0.0000   0.0000   0.0000

          k = 0.0000 0.1283 0.0000 ( 99191 PWs)   bands (ev):

   -29.2923 -28.8267 -19.9985 -12.7257  -9.9387  -8.8930  -8.3612  -7.1334
    -6.9672  -4.6909  -4.2206  -0.2281   3.4874   3.9672   4.1914

     occupation numbers 
     1.0000   1.0000   1.0000   1.0000   1.0000   1.0000   1.0000   1.0000
     1.0000   1.0000   1.0000   0.0000   0.0000   0.0000   0.0000

          k = 0.0000 0.2566 0.0000 ( 99169 PWs)   bands (ev):

   -29.0116 -28.6317 -19.4317 -12.5181 -10.8364 -10.0609  -8.9688  -7.6269
    -7.0991  -6.0283  -4.7104   0.6370   3.7097   4.9665   5.3999

     occupation numbers 
     1.0000   1.0000   1.0000   1.0000   1.0000   1.0000   1.0000   1.0000
     1.0000   1.0000   1.0000   0.0000   0.0000   0.0000   0.0000

          k = 0.0000 0.3849 0.0000 ( 99141 PWs)   bands (ev):

   -28.6641 -28.4073 -18.4932 -13.3501 -11.8018 -10.4605  -9.5846  -8.1013
    -7.2609  -7.1935  -5.1012   1.1686   4.1215   5.8534   7.6664

     occupation numbers 
     1.0000   1.0000   1.0000   1.0000   1.0000   1.0000   1.0000   1.0000
     1.0000   1.0000   1.0000   0.0000   0.0000   0.0000   0.0000

          k = 0.0000 0.5132 0.0000 ( 99114 PWs)   bands (ev):

   -28.4067 -28.2714 -17.2292 -15.2464 -11.6313 -10.7449  -9.9513  -8.3904
    -7.8384  -7.3686  -5.3063   1.4258   4.5380   5.1405   8.6114

     occupation numbers 
     1.0000   1.0000   1.0000   1.0000   1.0000   1.0000   1.0000   1.0000
     1.0000   1.0000   1.0000   0.0000   0.0000   0.0000   0.0000

          k = 0.1111 0.1925 0.0000 ( 99125 PWs)   bands (ev):

   -29.0987 -28.6911 -19.6202 -12.5642 -10.1645 -10.0514  -8.9113  -7.3695
    -7.1914  -5.5368  -4.7479   0.5650   3.9659   4.6720   4.7218

     occupation numbers 
     1.0000   1.0000   1.0000   1.0000   1.0000   1.0000   1.0000   1.0000
     1.0000   1.0000   1.0000   0.0000   0.0000   0.0000   0.0000

          k = 0.1111 0.3208 0.0000 ( 99142 PWs)   bands (ev):

   -28.7833 -28.4800 -18.8660 -12.6226 -11.5426 -10.5480  -9.6324  -7.8409
    -7.4896  -6.5320  -5.3036   1.4954   4.4699   5.8087   6.2590

     occupation numbers 
     1.0000   1.0000   1.0000   1.0000   1.0000   1.0000   1.0000   1.0000
     1.0000   1.0000   1.0000   0.0000   0.0000   0.0000   0.0000

          k = 0.1111 0.4491 0.0000 ( 99129 PWs)   bands (ev):

   -28.4767 -28.2987 -17.7477 -14.2286 -11.6900 -10.8169 -10.2345  -8.3217
    -7.7179  -7.2430  -5.6132   2.1639   4.7803   5.6222   7.8939

     occupation numbers 
     1.0000   1.0000   1.0000   1.0000   1.0000   1.0000   1.0000   1.0000
     1.0000   1.0000   1.0000   0.0000   0.0000   0.0000   0.0000

          k = 0.1111 0.5774 0.0000 ( 99140 PWs)   bands (ev):

   -28.3368 -28.2388 -16.6287 -15.6629 -11.6358 -10.7685 -10.5850  -8.5095
    -7.8368  -7.4637  -5.7137   2.4668   4.9991   5.0003   8.2596

     occupation numbers 
     1.0000   1.0000   1.0000   1.0000   1.0000   1.0000   1.0000   1.0000
     1.0000   1.0000   1.0000   0.0000   0.0000   0.0000   0.0000

          k = 0.2222 0.3849 0.0000 ( 99130 PWs)   bands (ev):

   -28.5057 -28.3098 -17.9255 -13.4686 -11.6288 -11.4808 -10.2560  -8.2754
    -7.8147  -6.9055  -6.0347   2.7370   5.8173   6.5548   6.6837

     occupation numbers 
     1.0000   1.0000   1.0000   1.0000   1.0000   1.0000   1.0000   1.0000
     1.0000   1.0000   1.0000   0.0000   0.0000   0.0000   0.0000

          k = 0.2222 0.5132 0.0000 ( 99073 PWs)   bands (ev):

   -28.3007 -28.2128 -16.6691 -14.8655 -12.3423 -11.1696 -10.6666  -8.6638
    -7.7341  -7.3807  -6.3916   3.7598   5.3445   6.4890   7.4544

     occupation numbers 
     1.0000   1.0000   1.0000   1.0000   1.0000   1.0000   1.0000   1.0000
     1.0000   1.0000   1.0000   0.0000   0.0000   0.0000   0.0000

          k = 0.3333 0.5774 0.0000 ( 98952 PWs)   bands (ev):

   -28.2049 -28.2049 -15.5335 -15.5335 -13.1927 -10.9161 -10.9161  -8.8359
    -7.5002  -7.5002  -6.8615   4.8178   4.8178   7.0279   8.4928

     occupation numbers 
     1.0000   1.0000   1.0000   1.0000   1.0000   1.0000   1.0000   1.0000
     1.0000   1.0000   1.0000   0.0000   0.0000   0.0000   0.0000

     the Fermi energy is    -3.2156 ev

!    total energy              =    -120.13423782 Ry
     estimated scf accuracy    <          9.7E-14 Ry
     smearing contrib. (-TS)   =       0.00000000 Ry
     internal energy E=F+TS    =    -120.13423782 Ry

     The total energy is F=E-TS. E is the sum of the following terms:
     one-electron contribution =    -975.19900439 Ry
     hartree contribution      =     493.36101443 Ry
     xc contribution           =     -25.85847416 Ry
     ewald contribution        =     387.56222630 Ry

     convergence has been achieved in  11 iterations

     negative rho (up, down):  3.291E-06 0.000E+00

     Forces acting on atoms (cartesian axes, Ry/au):

     atom    1 type  1   force =     0.00000000   -0.00000000   -0.00032383
     atom    2 type  1   force =     0.00000000    0.00000000    0.00032383
     atom    3 type  2   force =     0.00000000   -0.00000000    0.00002493
     atom    4 type  2   force =     0.00000000    0.00000000   -0.00002493
     The non-local contrib.  to forces
     atom    1 type  1   force =     0.00000000    0.00000000   -0.39799737
     atom    2 type  1   force =    -0.00000000   -0.00000000    0.39799737
     atom    3 type  2   force =    -0.00000000   -0.00000000    2.50680355
     atom    4 type  2   force =     0.00000000    0.00000000   -2.50680355
     The ionic contribution  to forces
     atom    1 type  1   force =    -0.00000001    0.00000000   -1.16488099
     atom    2 type  1   force =     0.00000001   -0.00000000    1.16488099
     atom    3 type  2   force =    -0.00000000    0.00000000  -48.74159951
     atom    4 type  2   force =     0.00000000   -0.00000000   48.74159951
     The local contribution  to forces
     atom    1 type  1   force =     0.00000000    0.00000000    1.55938484
     atom    2 type  1   force =     0.00000002   -0.00000001   -1.55938483
     atom    3 type  2   force =     0.00000005    0.00000005   46.23482002
     atom    4 type  2   force =     0.00000021   -0.00000005  -46.23482006
     The core correction contribution to forces
     atom    1 type  1   force =    -0.00000000   -0.00000000    0.00316954
     atom    2 type  1   force =    -0.00000000   -0.00000000   -0.00316954
     atom    3 type  2   force =     0.00000000    0.00000000    0.00000000
     atom    4 type  2   force =     0.00000000    0.00000000    0.00000000
     The Hubbard contrib.    to forces
     atom    1 type  1   force =     0.00000000    0.00000000    0.00000000
     atom    2 type  1   force =     0.00000000    0.00000000    0.00000000
     atom    3 type  2   force =     0.00000000    0.00000000    0.00000000
     atom    4 type  2   force =     0.00000000    0.00000000    0.00000000
     The SCF correction term to forces
     atom    1 type  1   force =     0.00000000   -0.00000000    0.00000014
     atom    2 type  1   force =    -0.00000000    0.00000000   -0.00000014
     atom    3 type  2   force =    -0.00000000    0.00000000    0.00000085
     atom    4 type  2   force =    -0.00000000   -0.00000000   -0.00000085

     Total force =     0.000459     Total SCF correction =     0.000001


     Computing stress (Cartesian axis) and pressure


     negative rho (up, down):  3.291E-06 0.000E+00
          total   stress  (Ry/bohr**3)                   (kbar)     P=        0.11
   0.00000104   0.00000000   0.00000000            0.15        0.00        0.00
   0.00000000   0.00000104   0.00000000            0.00        0.15        0.00
   0.00000000   0.00000000   0.00000006            0.00        0.00        0.01

     kinetic stress (kbar)   6756.34      0.00      0.00
                                0.00   6756.34     -0.00
                                0.00     -0.00   6005.52

     local   stress (kbar)-188576.43      0.00     -0.00
                                0.00-188576.43      0.00
                               -0.00      0.00 183501.23

     nonloc. stress (kbar)    872.20      0.00      0.00
                                0.00    872.20      0.00
                                0.00      0.00    676.86

     hartree stress (kbar)  94250.26      0.00     -0.00
                                0.00  94250.26     -0.00
                               -0.00     -0.00 -89587.45

     exc-cor stress (kbar)  -1583.33     -0.00      0.00
                               -0.00  -1583.33     -0.00
                                0.00     -0.00  -1573.09

     corecor stress (kbar)    -54.54      0.00     -0.00
                                0.00    -54.54      0.00
                               -0.00      0.00    -53.44

     ewald   stress (kbar)  88335.65     -0.00      0.00
                               -0.00  88335.65     -0.00
                                0.00     -0.00 -98969.63

     hubbard stress (kbar)      0.00      0.00      0.00
                                0.00      0.00      0.00
                                0.00      0.00      0.00

     DFT-D   stress (kbar)      0.00      0.00      0.00
                                0.00      0.00      0.00
                                0.00      0.00      0.00

     XDM     stress (kbar)      0.00      0.00      0.00
                                0.00      0.00      0.00
                                0.00      0.00      0.00

     dft-nl  stress (kbar)      0.00      0.00      0.00
                                0.00      0.00      0.00
                                0.00      0.00      0.00

     TS-vdW  stress (kbar)      0.00      0.00      0.00
                                0.00      0.00      0.00
                                0.00      0.00      0.00

     MDB     stress (kbar)      0.00      0.00      0.00
                                0.00      0.00      0.00
                                0.00      0.00      0.00

     3D-RISM stress (kbar)      0.00      0.00      0.00
                                0.00      0.00      0.00
                                0.00      0.00      0.00


     Writing all to output data dir ../tmp/fgc.save/

     init_run     :      3.49s CPU      6.46s WALL (       1 calls)
     electrons    :    117.44s CPU    208.37s WALL (       1 calls)
     forces       :      1.96s CPU      3.84s WALL (       1 calls)
     stress       :      3.51s CPU      6.18s WALL (       1 calls)

     Called by init_run:
     wfcinit      :      1.86s CPU      4.38s WALL (       1 calls)
     wfcinit:atom :      0.03s CPU      0.04s WALL (       2 calls)
     wfcinit:wfcr :      1.73s CPU      4.23s WALL (       2 calls)
     potinit      :      0.57s CPU      0.64s WALL (       1 calls)
     hinit0       :      0.66s CPU      0.67s WALL (       1 calls)

     Called by electrons:
     c_bands      :     97.09s CPU    174.57s WALL (      12 calls)
     sum_band     :     12.88s CPU     22.46s WALL (      12 calls)
     v_of_rho     :      3.22s CPU      3.42s WALL (      12 calls)
     v_h          :      0.21s CPU      0.23s WALL (      12 calls)
     v_xc         :      3.40s CPU      3.60s WALL (      14 calls)
     newd         :      3.18s CPU      6.87s WALL (      12 calls)
     mix_rho      :      0.47s CPU      0.60s WALL (      12 calls)

     Called by c_bands:
     init_us_2    :      0.35s CPU      0.58s WALL (      54 calls)
     init_us_2:cp :      0.35s CPU      0.58s WALL (      54 calls)
     cegterg      :     77.57s CPU    137.87s WALL (      24 calls)

     Called by sum_band:
     sum_band:wei :      0.17s CPU      0.18s WALL (      12 calls)
     sum_band:loo :      7.75s CPU     13.20s WALL (      12 calls)
     sum_band:buf :      0.04s CPU      0.05s WALL (      24 calls)
     sum_band:ini :      0.12s CPU      0.21s WALL (      24 calls)
     sum_band:cal :      3.11s CPU      6.33s WALL (      24 calls)
     sum_band:bec :      0.00s CPU      0.00s WALL (      24 calls)
     addusdens    :      1.65s CPU      4.62s WALL (      12 calls)
     addusd:skk   :      0.01s CPU      0.01s WALL (      24 calls)
     addusd:dgemm :      0.52s CPU      2.12s WALL (      24 calls)
     addusd:qvan2 :      0.58s CPU      1.43s WALL (      24 calls)

     Called by *egterg:
     cdiaghg      :      6.66s CPU     10.49s WALL (     106 calls)
     cegterg:over :     14.48s CPU     20.69s WALL (      84 calls)
     cegterg:upda :      1.62s CPU      3.36s WALL (      84 calls)
     cegterg:last :      1.86s CPU      3.17s WALL (      50 calls)
     h_psi        :     42.57s CPU     82.75s WALL (     110 calls)
     s_psi        :      1.03s CPU      1.80s WALL (     110 calls)
     g_psi        :      0.05s CPU      0.04s WALL (      84 calls)

     Called by h_psi:
     h_psi:calbec :     12.80s CPU     23.76s WALL (     110 calls)
     vloc_psi     :     26.84s CPU     52.40s WALL (     110 calls)
     add_vuspsi   :      2.86s CPU      6.51s WALL (     110 calls)

     General routines
     calbec       :     16.84s CPU     32.84s WALL (     144 calls)
     fft          :      2.66s CPU      3.25s WALL (     158 calls)
     ffts         :      0.48s CPU      0.53s WALL (      12 calls)
     fftw         :     28.89s CPU     55.44s WALL (    2298 calls)

     Parallel routines

     PWSCF        :   2m 6.65s CPU   3m45.90s WALL


   This run was terminated on:   3:28:29  24Feb2024            

=------------------------------------------------------------------------------=
   JOB DONE.
=------------------------------------------------------------------------------=
