
     Program PWSCF v.7.1 starts on 24Feb2024 at  3:55: 0 

     This program is part of the open-source Quantum ESPRESSO suite
     for quantum simulation of materials; please cite
         "P. Giannozzi et al., J. Phys.:Condens. Matter 21 395502 (2009);
         "P. Giannozzi et al., J. Phys.:Condens. Matter 29 465901 (2017);
         "P. Giannozzi et al., J. Chem. Phys. 152 154105 (2020);
          URL http://www.quantum-espresso.org", 
     in publications or presentations arising from this work. More details at
     http://www.quantum-espresso.org/quote

     Parallel version (MPI), running on    24 processors

     MPI processes distributed on     1 nodes
     249489 MiB available memory on the printing compute node when the environment starts

     Reading input from ecut.1000.in

     Current dimensions of program PWSCF are:
     Max number of different atomic species (ntypx) = 10
     Max number of k-points (npk) =  40000
     Max angular momentum in pseudopotentials (lmaxx) =  4

     K-points division:     npool     =       6
     R & G space division:  proc/nbgrp/npool/nimage =       4
     Subspace diagonalization in iterative solution of the eigenvalue problem:
     a serial algorithm will be used


     Parallelization info
     --------------------
     sticks:   dense  smooth     PW     G-vecs:    dense   smooth      PW
     Min        1668    1668    441               783676   783676  106061
     Max        1669    1669    442               783701   783701  106080
     Sum        6673    6673   1765              3134755  3134755  424285

     Using Slab Decomposition



     bravais-lattice index     =            4
     lattice parameter (alat)  =       4.9229  a.u.
     unit-cell volume          =     733.7343 (a.u.)^3
     number of atoms/cell      =            4
     number of atomic types    =            2
     number of electrons       =        22.00
     number of Kohn-Sham states=           15
     kinetic-energy cutoff     =    1000.0000  Ry
     charge density cutoff     =    4000.0000  Ry
     scf convergence threshold =      1.0E-12
     mixing beta               =       0.7000
     number of iterations used =            8  plain     mixing
     Exchange-correlation=  SLA  PW   PBX  PBC
                           (   1   4   3   4   0   0   0)

     celldm(1)=   4.922852  celldm(2)=   0.000000  celldm(3)=   7.101627
     celldm(4)=   0.000000  celldm(5)=   0.000000  celldm(6)=   0.000000

     crystal axes: (cart. coord. in units of alat)
               a(1) = (   1.000000   0.000000   0.000000 )  
               a(2) = (  -0.500000   0.866025   0.000000 )  
               a(3) = (   0.000000   0.000000   7.101627 )  

     reciprocal axes: (cart. coord. in units 2 pi/alat)
               b(1) = (  1.000000  0.577350 -0.000000 )  
               b(2) = (  0.000000  1.154701  0.000000 )  
               b(3) = (  0.000000 -0.000000  0.140813 )  


     PseudoPot. # 1 for C  read from file:
     ../pseudo/c_pbe_v1.2.uspp.F.UPF
     MD5 check sum: d1aef80898a10debaa0f26306b886e00
     Pseudo is Ultrasoft + core correction, Zval =  4.0
     Generated by new atomic code, or converted to UPF format
     Using radial grid of  721 points,  4 beta functions with: 
                l(1) =   0
                l(2) =   0
                l(3) =   1
                l(4) =   1
     Q(r) pseudized with  8 coefficients,  rinner =    1.100   1.100   1.100


     PseudoPot. # 2 for F  read from file:
     ../pseudo/f_pbe_v1.4.uspp.F.UPF
     MD5 check sum: 4c38b6a325caf53ec0e86aed9459de46
     Pseudo is Ultrasoft, Zval =  7.0
     Generated by new atomic code, or converted to UPF format
     Using radial grid of  799 points,  4 beta functions with: 
                l(1) =   0
                l(2) =   0
                l(3) =   1
                l(4) =   1
     Q(r) pseudized with  8 coefficients,  rinner =    0.950   0.950   0.950


     atomic species   valence    mass     pseudopotential
        C              4.00    12.01070     C ( 1.00)
        F              7.00    18.99840     F ( 1.00)

     12 Sym. Ops., with inversion, found ( 8 have fractional translation)


                                    s                        frac. trans.

      isym =  1     identity                                     

 cryst.   s( 1) = (     1          0          0      )
                  (     0          1          0      )
                  (     0          0          1      )

 cart.    s( 1) = (  1.0000000  0.0000000  0.0000000 )
                  (  0.0000000  1.0000000  0.0000000 )
                  (  0.0000000  0.0000000  1.0000000 )


      isym =  2     180 deg rotation - cart. axis [1,0,0]        

 cryst.   s( 2) = (     1          0          0      )
                  (    -1         -1          0      )
                  (     0          0         -1      )

 cart.    s( 2) = (  1.0000000  0.0000000  0.0000000 )
                  (  0.0000000 -1.0000000  0.0000000 )
                  (  0.0000000  0.0000000 -1.0000000 )


      isym =  3     120 deg rotation - cryst. axis [0,0,1]       

 cryst.   s( 3) = (     0          1          0      )    f =( -0.5000000 )
                  (    -1         -1          0      )       ( -0.5000000 )
                  (     0          0          1      )       (  0.0000000 )

 cart.    s( 3) = ( -0.5000000 -0.8660254  0.0000000 )    f =( -0.2500000 )
                  (  0.8660254 -0.5000000  0.0000000 )       ( -0.4330127 )
                  (  0.0000000  0.0000000  1.0000000 )       (  0.0000000 )


      isym =  4     120 deg rotation - cryst. axis [0,0,-1]      

 cryst.   s( 4) = (    -1         -1          0      )    f =(  0.0000000 )
                  (     1          0          0      )       ( -0.5000000 )
                  (     0          0          1      )       (  0.0000000 )

 cart.    s( 4) = ( -0.5000000  0.8660254  0.0000000 )    f =(  0.2500000 )
                  ( -0.8660254 -0.5000000  0.0000000 )       ( -0.4330127 )
                  (  0.0000000  0.0000000  1.0000000 )       (  0.0000000 )


      isym =  5     180 deg rotation - cryst. axis [0,1,0]       

 cryst.   s( 5) = (    -1         -1          0      )    f =(  0.0000000 )
                  (     0          1          0      )       ( -0.5000000 )
                  (     0          0         -1      )       (  0.0000000 )

 cart.    s( 5) = ( -0.5000000 -0.8660254  0.0000000 )    f =(  0.2500000 )
                  ( -0.8660254  0.5000000  0.0000000 )       ( -0.4330127 )
                  (  0.0000000  0.0000000 -1.0000000 )       (  0.0000000 )


      isym =  6     180 deg rotation - cryst. axis [1,1,0]       

 cryst.   s( 6) = (     0          1          0      )    f =(  0.5000000 )
                  (     1          0          0      )       (  0.5000000 )
                  (     0          0         -1      )       (  0.0000000 )

 cart.    s( 6) = ( -0.5000000  0.8660254  0.0000000 )    f =(  0.2500000 )
                  (  0.8660254  0.5000000  0.0000000 )       (  0.4330127 )
                  (  0.0000000  0.0000000 -1.0000000 )       (  0.0000000 )


      isym =  7     inversion                                    

 cryst.   s( 7) = (    -1          0          0      )
                  (     0         -1          0      )
                  (     0          0         -1      )

 cart.    s( 7) = ( -1.0000000  0.0000000  0.0000000 )
                  (  0.0000000 -1.0000000  0.0000000 )
                  (  0.0000000  0.0000000 -1.0000000 )


      isym =  8     inv. 180 deg rotation - cart. axis [1,0,0]   

 cryst.   s( 8) = (    -1          0          0      )
                  (     1          1          0      )
                  (     0          0          1      )

 cart.    s( 8) = ( -1.0000000  0.0000000  0.0000000 )
                  (  0.0000000  1.0000000  0.0000000 )
                  (  0.0000000  0.0000000  1.0000000 )


      isym =  9     inv. 120 deg rotation - cryst. axis [0,0,1]  

 cryst.   s( 9) = (     0         -1          0      )    f =(  0.5000000 )
                  (     1          1          0      )       ( -0.5000000 )
                  (     0          0         -1      )       (  0.0000000 )

 cart.    s( 9) = (  0.5000000  0.8660254  0.0000000 )    f =(  0.7500000 )
                  ( -0.8660254  0.5000000  0.0000000 )       ( -0.4330127 )
                  (  0.0000000  0.0000000 -1.0000000 )       (  0.0000000 )


      isym = 10     inv. 120 deg rotation - cryst. axis [0,0,-1] 

 cryst.   s(10) = (     1          1          0      )    f =(  0.0000000 )
                  (    -1          0          0      )       (  0.5000000 )
                  (     0          0         -1      )       (  0.0000000 )

 cart.    s(10) = (  0.5000000 -0.8660254  0.0000000 )    f =( -0.2500000 )
                  (  0.8660254  0.5000000  0.0000000 )       (  0.4330127 )
                  (  0.0000000  0.0000000 -1.0000000 )       (  0.0000000 )


      isym = 11     inv. 180 deg rotation - cryst. axis [0,1,0]  

 cryst.   s(11) = (     1          1          0      )    f =(  0.0000000 )
                  (     0         -1          0      )       ( -0.5000000 )
                  (     0          0          1      )       (  0.0000000 )

 cart.    s(11) = (  0.5000000  0.8660254  0.0000000 )    f =(  0.2500000 )
                  (  0.8660254 -0.5000000  0.0000000 )       ( -0.4330127 )
                  (  0.0000000  0.0000000  1.0000000 )       (  0.0000000 )


      isym = 12     inv. 180 deg rotation - cryst. axis [1,1,0]  

 cryst.   s(12) = (     0         -1          0      )    f =( -0.5000000 )
                  (    -1          0          0      )       ( -0.5000000 )
                  (     0          0          1      )       (  0.0000000 )

 cart.    s(12) = (  0.5000000 -0.8660254  0.0000000 )    f =( -0.2500000 )
                  ( -0.8660254 -0.5000000  0.0000000 )       ( -0.4330127 )
                  (  0.0000000  0.0000000  1.0000000 )       (  0.0000000 )


     point group D_3d (-3m) 
     there are  6 classes
     the character table:

       E     2C3   3C2'  i     2S6   3s_d 
A_1g   1.00  1.00  1.00  1.00  1.00  1.00
A_2g   1.00  1.00 -1.00  1.00  1.00 -1.00
E_g    2.00 -1.00  0.00  2.00 -1.00  0.00
A_1u   1.00  1.00  1.00 -1.00 -1.00 -1.00
A_2u   1.00  1.00 -1.00 -1.00 -1.00  1.00
E_u    2.00 -1.00  0.00 -2.00  1.00  0.00

     the symmetry operations in each class and the name of the first element:

     E        1
          identity                                               
     2C3      3    4
          120 deg rotation - cryst. axis [0,0,1]                 
     3C2'     2    5    6
          180 deg rotation - cart. axis [1,0,0]                  
     i        7
          inversion                                              
     2S6      9   10
          inv. 120 deg rotation - cryst. axis [0,0,1]            
     3s_d     8   11   12
          inv. 180 deg rotation - cart. axis [1,0,0]             

   Cartesian axes

     site n.     atom                  positions (alat units)
         1           C   tau(   1) = (   0.5000000   0.5773503  -0.0938017  )
         2           C   tau(   2) = (  -0.0000000   0.2886751   0.0938017  )
         3           F   tau(   3) = (   0.5000000   0.5773503  -0.6235043  )
         4           F   tau(   4) = (  -0.0000000   0.2886751   0.6235043  )

   Crystallographic axes

     site n.     atom                  positions (cryst. coord.)
         1           C   tau(   1) = (  0.8333333  0.6666667 -0.0132085  )
         2           C   tau(   2) = (  0.1666667  0.3333333  0.0132085  )
         3           F   tau(   3) = (  0.8333333  0.6666667 -0.0877974  )
         4           F   tau(   4) = (  0.1666667  0.3333333  0.0877974  )

     number of k points=    12  Marzari-Vanderbilt smearing, width (Ry)=  0.0010
                       cart. coord. in units 2pi/alat
        k(    1) = (   0.0000000   0.0000000   0.0000000), wk =   0.0246914
        k(    2) = (   0.0000000   0.1283001   0.0000000), wk =   0.1481481
        k(    3) = (   0.0000000   0.2566001   0.0000000), wk =   0.1481481
        k(    4) = (   0.0000000   0.3849002   0.0000000), wk =   0.1481481
        k(    5) = (   0.0000000   0.5132002   0.0000000), wk =   0.1481481
        k(    6) = (   0.1111111   0.1924501   0.0000000), wk =   0.1481481
        k(    7) = (   0.1111111   0.3207501   0.0000000), wk =   0.2962963
        k(    8) = (   0.1111111   0.4490502   0.0000000), wk =   0.2962963
        k(    9) = (   0.1111111   0.5773503   0.0000000), wk =   0.1481481
        k(   10) = (   0.2222222   0.3849002   0.0000000), wk =   0.1481481
        k(   11) = (   0.2222222   0.5132002   0.0000000), wk =   0.2962963
        k(   12) = (   0.3333333   0.5773503   0.0000000), wk =   0.0493827

                       cryst. coord.
        k(    1) = (   0.0000000   0.0000000   0.0000000), wk =   0.0246914
        k(    2) = (   0.0000000   0.1111111   0.0000000), wk =   0.1481481
        k(    3) = (   0.0000000   0.2222222   0.0000000), wk =   0.1481481
        k(    4) = (   0.0000000   0.3333333   0.0000000), wk =   0.1481481
        k(    5) = (   0.0000000   0.4444444   0.0000000), wk =   0.1481481
        k(    6) = (   0.1111111   0.1111111   0.0000000), wk =   0.1481481
        k(    7) = (   0.1111111   0.2222222   0.0000000), wk =   0.2962963
        k(    8) = (   0.1111111   0.3333333   0.0000000), wk =   0.2962963
        k(    9) = (   0.1111111   0.4444444   0.0000000), wk =   0.1481481
        k(   10) = (   0.2222222   0.2222222   0.0000000), wk =   0.1481481
        k(   11) = (   0.2222222   0.3333333   0.0000000), wk =   0.2962963
        k(   12) = (   0.3333333   0.3333333   0.0000000), wk =   0.0493827

     Dense  grid:  3134755 G-vectors     FFT dimensions: ( 100, 100, 720)

     Dynamical RAM for                 wfc:      22.42 MB

     Dynamical RAM for     wfc (w. buffer):      67.26 MB

     Dynamical RAM for           str. fact:      23.92 MB

     Dynamical RAM for           local pot:       0.00 MB

     Dynamical RAM for          nlocal pot:      47.83 MB

     Dynamical RAM for                qrad:       2.90 MB

     Dynamical RAM for          rho,v,vnew:      77.07 MB

     Dynamical RAM for               rhoin:      25.69 MB

     Dynamical RAM for            rho*nmix:     191.33 MB

     Dynamical RAM for           G-vectors:      50.82 MB

     Dynamical RAM for          h,s,v(r/c):       0.04 MB

     Dynamical RAM for          <psi|beta>:       0.01 MB

     Dynamical RAM for                 psi:      44.84 MB

     Dynamical RAM for                hpsi:      44.84 MB

     Dynamical RAM for                spsi:      44.84 MB

     Dynamical RAM for      wfcinit/wfcrot:      47.84 MB

     Dynamical RAM for           addusdens:      99.65 MB

     Dynamical RAM for          addusforce:      99.65 MB

     Dynamical RAM for         addusstress:     104.63 MB

     Estimated static dynamical RAM per process >     400.03 MB

     Estimated max dynamical RAM per process >     725.92 MB

     Estimated total dynamical RAM >      13.28 GB

     Initial potential from superposition of free atoms

     starting charge      21.9999, renormalised to      22.0000

     negative rho (up, down):  3.768E-03 0.000E+00
     Starting wfcs are   16 randomized atomic wfcs

     total cpu time spent up to now is       22.0 secs

     Self-consistent Calculation

     iteration #  1     ecut=  1000.00 Ry     beta= 0.70
     Davidson diagonalization with overlap

---- Real-time Memory Report at c_bands before calling an iterative solver
           509 MiB given to the printing process from OS
             0 MiB allocation reported by mallinfo(arena+hblkhd)
        240235 MiB available memory on the node where the printing process lives
------------------
     ethr =  1.00E-02,  avg # of iterations =  4.8

     Threshold (ethr) on eigenvalues was too large:
     Diagonalizing with lowered threshold

     Davidson diagonalization with overlap

---- Real-time Memory Report at c_bands before calling an iterative solver
           588 MiB given to the printing process from OS
             0 MiB allocation reported by mallinfo(arena+hblkhd)
        238971 MiB available memory on the node where the printing process lives
------------------
     ethr =  9.55E-04,  avg # of iterations =  1.5

     negative rho (up, down):  1.052E-03 0.000E+00

     total cpu time spent up to now is       80.1 secs

     total energy              =    -120.07195366 Ry
     estimated scf accuracy    <       0.20614515 Ry

     iteration #  2     ecut=  1000.00 Ry     beta= 0.70
     Davidson diagonalization with overlap

---- Real-time Memory Report at c_bands before calling an iterative solver
           759 MiB given to the printing process from OS
             0 MiB allocation reported by mallinfo(arena+hblkhd)
        238139 MiB available memory on the node where the printing process lives
------------------
     ethr =  9.37E-04,  avg # of iterations =  2.3

     negative rho (up, down):  5.745E-04 0.000E+00

     total cpu time spent up to now is      107.3 secs

     total energy              =    -120.09432821 Ry
     estimated scf accuracy    <       0.10590769 Ry

     iteration #  3     ecut=  1000.00 Ry     beta= 0.70
     Davidson diagonalization with overlap

---- Real-time Memory Report at c_bands before calling an iterative solver
           785 MiB given to the printing process from OS
             0 MiB allocation reported by mallinfo(arena+hblkhd)
        238030 MiB available memory on the node where the printing process lives
------------------
     ethr =  4.81E-04,  avg # of iterations =  4.2

     negative rho (up, down):  1.182E-04 0.000E+00

     total cpu time spent up to now is      148.9 secs

     total energy              =    -120.13128480 Ry
     estimated scf accuracy    <       0.01448460 Ry

     iteration #  4     ecut=  1000.00 Ry     beta= 0.70
     Davidson diagonalization with overlap

---- Real-time Memory Report at c_bands before calling an iterative solver
           809 MiB given to the printing process from OS
             0 MiB allocation reported by mallinfo(arena+hblkhd)
        237919 MiB available memory on the node where the printing process lives
------------------
     ethr =  6.58E-05,  avg # of iterations =  6.5

     negative rho (up, down):  1.225E-05 0.000E+00

     total cpu time spent up to now is      188.5 secs

     total energy              =    -120.13431367 Ry
     estimated scf accuracy    <       0.00009224 Ry

     iteration #  5     ecut=  1000.00 Ry     beta= 0.70
     Davidson diagonalization with overlap

---- Real-time Memory Report at c_bands before calling an iterative solver
           832 MiB given to the printing process from OS
             0 MiB allocation reported by mallinfo(arena+hblkhd)
        238169 MiB available memory on the node where the printing process lives
------------------
     ethr =  4.19E-07,  avg # of iterations =  7.1

     negative rho (up, down):  1.732E-06 0.000E+00

     total cpu time spent up to now is      236.1 secs

     total energy              =    -120.13435477 Ry
     estimated scf accuracy    <       0.00001191 Ry

     iteration #  6     ecut=  1000.00 Ry     beta= 0.70
     Davidson diagonalization with overlap

---- Real-time Memory Report at c_bands before calling an iterative solver
           856 MiB given to the printing process from OS
             0 MiB allocation reported by mallinfo(arena+hblkhd)
        237672 MiB available memory on the node where the printing process lives
------------------
     ethr =  5.41E-08,  avg # of iterations =  3.8

     negative rho (up, down):  8.338E-07 0.000E+00

     total cpu time spent up to now is      267.0 secs

     total energy              =    -120.13435663 Ry
     estimated scf accuracy    <       0.00000030 Ry

     iteration #  7     ecut=  1000.00 Ry     beta= 0.70
     Davidson diagonalization with overlap

---- Real-time Memory Report at c_bands before calling an iterative solver
           880 MiB given to the printing process from OS
             0 MiB allocation reported by mallinfo(arena+hblkhd)
        237630 MiB available memory on the node where the printing process lives
------------------
     ethr =  1.34E-09,  avg # of iterations =  2.8

     negative rho (up, down):  8.161E-07 0.000E+00

     total cpu time spent up to now is      295.2 secs

     total energy              =    -120.13435675 Ry
     estimated scf accuracy    <       0.00000009 Ry

     iteration #  8     ecut=  1000.00 Ry     beta= 0.70
     Davidson diagonalization with overlap

---- Real-time Memory Report at c_bands before calling an iterative solver
           904 MiB given to the printing process from OS
             0 MiB allocation reported by mallinfo(arena+hblkhd)
        237528 MiB available memory on the node where the printing process lives
------------------
     ethr =  4.01E-10,  avg # of iterations =  1.8

     negative rho (up, down):  8.223E-07 0.000E+00

     total cpu time spent up to now is      317.7 secs

     total energy              =    -120.13435677 Ry
     estimated scf accuracy    <          8.7E-10 Ry

     iteration #  9     ecut=  1000.00 Ry     beta= 0.70
     Davidson diagonalization with overlap

---- Real-time Memory Report at c_bands before calling an iterative solver
           928 MiB given to the printing process from OS
             0 MiB allocation reported by mallinfo(arena+hblkhd)
        237082 MiB available memory on the node where the printing process lives
------------------
     ethr =  3.98E-12,  avg # of iterations =  3.8

     negative rho (up, down):  8.300E-07 0.000E+00

     total cpu time spent up to now is      353.5 secs

     total energy              =    -120.13435677 Ry
     estimated scf accuracy    <          7.3E-11 Ry

     iteration # 10     ecut=  1000.00 Ry     beta= 0.70
     Davidson diagonalization with overlap

---- Real-time Memory Report at c_bands before calling an iterative solver
           952 MiB given to the printing process from OS
             0 MiB allocation reported by mallinfo(arena+hblkhd)
        237301 MiB available memory on the node where the printing process lives
------------------
     ethr =  3.30E-13,  avg # of iterations =  2.0

     negative rho (up, down):  8.303E-07 0.000E+00

     total cpu time spent up to now is      377.8 secs

     total energy              =    -120.13435677 Ry
     estimated scf accuracy    <          2.9E-12 Ry

     iteration # 11     ecut=  1000.00 Ry     beta= 0.70
     Davidson diagonalization with overlap

---- Real-time Memory Report at c_bands before calling an iterative solver
           952 MiB given to the printing process from OS
             0 MiB allocation reported by mallinfo(arena+hblkhd)
        237343 MiB available memory on the node where the printing process lives
------------------
     ethr =  1.00E-13,  avg # of iterations =  1.3

     negative rho (up, down):  8.306E-07 0.000E+00

     total cpu time spent up to now is      398.5 secs

     End of self-consistent calculation

          k = 0.0000 0.0000 0.0000 (391893 PWs)   bands (ev):

   -29.3982 -28.9023 -20.1881 -12.8243  -9.8425  -8.0997  -8.0997  -6.9220
    -6.9220  -3.9534  -3.9534  -0.8110   3.4083   3.4083   3.6118

     occupation numbers 
     1.0000   1.0000   1.0000   1.0000   1.0000   1.0000   1.0000   1.0000
     1.0000   1.0000   1.0000   0.0000   0.0000   0.0000   0.0000

          k = 0.0000 0.1283 0.0000 (391755 PWs)   bands (ev):

   -29.2922 -28.8267 -19.9984 -12.7257  -9.9388  -8.8930  -8.3612  -7.1335
    -6.9672  -4.6910  -4.2207  -0.2281   3.4876   3.9811   4.1915

     occupation numbers 
     1.0000   1.0000   1.0000   1.0000   1.0000   1.0000   1.0000   1.0000
     1.0000   1.0000   1.0000   0.0000   0.0000   0.0000   0.0000

          k = 0.0000 0.2566 0.0000 (391747 PWs)   bands (ev):

   -29.0115 -28.6316 -19.4316 -12.5181 -10.8364 -10.0610  -8.9689  -7.6269
    -7.0991  -6.0283  -4.7105   0.6369   3.7098   4.9773   5.4095

     occupation numbers 
     1.0000   1.0000   1.0000   1.0000   1.0000   1.0000   1.0000   1.0000
     1.0000   1.0000   1.0000   0.0000   0.0000   0.0000   0.0000

          k = 0.0000 0.3849 0.0000 (391841 PWs)   bands (ev):

   -28.6641 -28.4073 -18.4931 -13.3501 -11.8018 -10.4606  -9.5846  -8.1013
    -7.2610  -7.1935  -5.1013   1.1686   4.1216   5.8539   7.0644

     occupation numbers 
     1.0000   1.0000   1.0000   1.0000   1.0000   1.0000   1.0000   1.0000
     1.0000   1.0000   1.0000   0.0000   0.0000   0.0000   0.0000

          k = 0.0000 0.5132 0.0000 (391917 PWs)   bands (ev):

   -28.4067 -28.2714 -17.2291 -15.2464 -11.6314 -10.7449  -9.9513  -8.3904
    -7.8384  -7.3686  -5.3063   1.4258   4.5380   5.1404   8.6111

     occupation numbers 
     1.0000   1.0000   1.0000   1.0000   1.0000   1.0000   1.0000   1.0000
     1.0000   1.0000   1.0000   0.0000   0.0000   0.0000   0.0000

          k = 0.1111 0.1925 0.0000 (391731 PWs)   bands (ev):

   -29.0987 -28.6911 -19.6200 -12.5642 -10.1645 -10.0514  -8.9114  -7.3695
    -7.1914  -5.5369  -4.7480   0.5649   3.9659   4.6847   4.7256

     occupation numbers 
     1.0000   1.0000   1.0000   1.0000   1.0000   1.0000   1.0000   1.0000
     1.0000   1.0000   1.0000   0.0000   0.0000   0.0000   0.0000

          k = 0.1111 0.3208 0.0000 (391776 PWs)   bands (ev):

   -28.7832 -28.4800 -18.8659 -12.6225 -11.5426 -10.5481  -9.6325  -7.8409
    -7.4896  -6.5320  -5.3037   1.4953   4.4698   5.8132   6.2641

     occupation numbers 
     1.0000   1.0000   1.0000   1.0000   1.0000   1.0000   1.0000   1.0000
     1.0000   1.0000   1.0000   0.0000   0.0000   0.0000   0.0000

          k = 0.1111 0.4491 0.0000 (391878 PWs)   bands (ev):

   -28.4766 -28.2987 -17.7476 -14.2285 -11.6900 -10.8169 -10.2346  -8.3218
    -7.7179  -7.2431  -5.6133   2.1638   4.7803   5.6221   7.8938

     occupation numbers 
     1.0000   1.0000   1.0000   1.0000   1.0000   1.0000   1.0000   1.0000
     1.0000   1.0000   1.0000   0.0000   0.0000   0.0000   0.0000

          k = 0.1111 0.5774 0.0000 (391906 PWs)   bands (ev):

   -28.3367 -28.2388 -16.6286 -15.6628 -11.6358 -10.7685 -10.5850  -8.5095
    -7.8368  -7.4637  -5.7138   2.4667   4.9990   5.0003   8.2593

     occupation numbers 
     1.0000   1.0000   1.0000   1.0000   1.0000   1.0000   1.0000   1.0000
     1.0000   1.0000   1.0000   0.0000   0.0000   0.0000   0.0000

          k = 0.2222 0.3849 0.0000 (391801 PWs)   bands (ev):

   -28.5057 -28.3097 -17.9254 -13.4685 -11.6288 -11.4808 -10.2560  -8.2754
    -7.8147  -6.9055  -6.0348   2.7369   5.8172   6.5547   6.6836

     occupation numbers 
     1.0000   1.0000   1.0000   1.0000   1.0000   1.0000   1.0000   1.0000
     1.0000   1.0000   1.0000   0.0000   0.0000   0.0000   0.0000

          k = 0.2222 0.5132 0.0000 (391735 PWs)   bands (ev):

   -28.3007 -28.2128 -16.6690 -14.8654 -12.3423 -11.1697 -10.6666  -8.6638
    -7.7342  -7.3807  -6.3916   3.7597   5.3444   6.4889   7.4542

     occupation numbers 
     1.0000   1.0000   1.0000   1.0000   1.0000   1.0000   1.0000   1.0000
     1.0000   1.0000   1.0000   0.0000   0.0000   0.0000   0.0000

          k = 0.3333 0.5774 0.0000 (391671 PWs)   bands (ev):

   -28.2049 -28.2049 -15.5334 -15.5334 -13.1927 -10.9161 -10.9161  -8.8360
    -7.5002  -7.5002  -6.8615   4.8177   4.8177   7.0277   8.4925

     occupation numbers 
     1.0000   1.0000   1.0000   1.0000   1.0000   1.0000   1.0000   1.0000
     1.0000   1.0000   1.0000   0.0000   0.0000   0.0000   0.0000

     the Fermi energy is    -3.2158 ev

!    total energy              =    -120.13435677 Ry
     estimated scf accuracy    <          4.7E-14 Ry
     smearing contrib. (-TS)   =       0.00000000 Ry
     internal energy E=F+TS    =    -120.13435677 Ry

     The total energy is F=E-TS. E is the sum of the following terms:
     one-electron contribution =    -975.19922662 Ry
     hartree contribution      =     493.36113443 Ry
     xc contribution           =     -25.85849088 Ry
     ewald contribution        =     387.56222630 Ry

     convergence has been achieved in  11 iterations

     negative rho (up, down):  8.306E-07 0.000E+00

     Forces acting on atoms (cartesian axes, Ry/au):

     atom    1 type  1   force =     0.00000000    0.00000000   -0.00032509
     atom    2 type  1   force =    -0.00000000   -0.00000000    0.00032509
     atom    3 type  2   force =     0.00000000   -0.00000000    0.00003224
     atom    4 type  2   force =     0.00000000    0.00000000   -0.00003224
     The non-local contrib.  to forces
     atom    1 type  1   force =     0.00000000   -0.00000000   -0.39799936
     atom    2 type  1   force =    -0.00000000    0.00000000    0.39799936
     atom    3 type  2   force =     0.00000000    0.00000000    2.50679889
     atom    4 type  2   force =     0.00000000    0.00000000   -2.50679889
     The ionic contribution  to forces
     atom    1 type  1   force =    -0.00000001    0.00000000   -1.16488099
     atom    2 type  1   force =     0.00000001   -0.00000000    1.16488099
     atom    3 type  2   force =    -0.00000000    0.00000000  -48.74159951
     atom    4 type  2   force =     0.00000000   -0.00000000   48.74159951
     The local contribution  to forces
     atom    1 type  1   force =    -0.00000000    0.00000001    1.55938548
     atom    2 type  1   force =     0.00000001   -0.00000000   -1.55938547
     atom    3 type  2   force =    -0.00000000    0.00000009   46.23483250
     atom    4 type  2   force =     0.00000016   -0.00000001  -46.23483248
     The core correction contribution to forces
     atom    1 type  1   force =    -0.00000000   -0.00000000    0.00316968
     atom    2 type  1   force =    -0.00000000    0.00000000   -0.00316968
     atom    3 type  2   force =     0.00000000    0.00000000    0.00000000
     atom    4 type  2   force =     0.00000000    0.00000000    0.00000000
     The Hubbard contrib.    to forces
     atom    1 type  1   force =     0.00000000    0.00000000    0.00000000
     atom    2 type  1   force =     0.00000000    0.00000000    0.00000000
     atom    3 type  2   force =     0.00000000    0.00000000    0.00000000
     atom    4 type  2   force =     0.00000000    0.00000000    0.00000000
     The SCF correction term to forces
     atom    1 type  1   force =     0.00000000    0.00000000    0.00000010
     atom    2 type  1   force =    -0.00000000    0.00000000   -0.00000009
     atom    3 type  2   force =    -0.00000000   -0.00000000    0.00000037
     atom    4 type  2   force =     0.00000000    0.00000000   -0.00000037

     Total force =     0.000462     Total SCF correction =     0.000001


     Computing stress (Cartesian axis) and pressure


     negative rho (up, down):  8.306E-07 0.000E+00
          total   stress  (Ry/bohr**3)                   (kbar)     P=        0.11
   0.00000111   0.00000000   0.00000000            0.16        0.00        0.00
   0.00000000   0.00000111   0.00000000            0.00        0.16        0.00
   0.00000000   0.00000000   0.00000011            0.00        0.00        0.02

     kinetic stress (kbar)   6756.45     -0.00      0.00
                               -0.00   6756.45     -0.00
                                0.00     -0.00   6005.61

     local   stress (kbar)-188576.46      0.00     -0.00
                                0.00-188576.46      0.00
                               -0.00      0.00 183501.23

     nonloc. stress (kbar)    872.12      0.00      0.00
                                0.00    872.12      0.00
                                0.00      0.00    676.80

     hartree stress (kbar)  94250.28     -0.00     -0.00
                               -0.00  94250.28     -0.00
                               -0.00     -0.00 -89587.46

     exc-cor stress (kbar)  -1583.33     -0.00      0.00
                               -0.00  -1583.33     -0.00
                                0.00     -0.00  -1573.09

     corecor stress (kbar)    -54.54      0.00     -0.00
                                0.00    -54.54      0.00
                               -0.00      0.00    -53.44

     ewald   stress (kbar)  88335.65     -0.00      0.00
                               -0.00  88335.65     -0.00
                                0.00     -0.00 -98969.63

     hubbard stress (kbar)      0.00      0.00      0.00
                                0.00      0.00      0.00
                                0.00      0.00      0.00

     DFT-D   stress (kbar)      0.00      0.00      0.00
                                0.00      0.00      0.00
                                0.00      0.00      0.00

     XDM     stress (kbar)      0.00      0.00      0.00
                                0.00      0.00      0.00
                                0.00      0.00      0.00

     dft-nl  stress (kbar)      0.00      0.00      0.00
                                0.00      0.00      0.00
                                0.00      0.00      0.00

     TS-vdW  stress (kbar)      0.00      0.00      0.00
                                0.00      0.00      0.00
                                0.00      0.00      0.00

     MDB     stress (kbar)      0.00      0.00      0.00
                                0.00      0.00      0.00
                                0.00      0.00      0.00

     3D-RISM stress (kbar)      0.00      0.00      0.00
                                0.00      0.00      0.00
                                0.00      0.00      0.00


     Writing all to output data dir ../tmp/fgc.save/

     init_run     :     20.71s CPU     21.82s WALL (       1 calls)
     electrons    :    247.23s CPU    377.15s WALL (       1 calls)
     forces       :      5.93s CPU      8.19s WALL (       1 calls)
     stress       :      9.31s CPU     14.89s WALL (       1 calls)

     Called by init_run:
     wfcinit      :      6.11s CPU      8.09s WALL (       1 calls)
     wfcinit:atom :      0.04s CPU      0.06s WALL (       2 calls)
     wfcinit:wfcr :      5.69s CPU      7.74s WALL (       2 calls)
     potinit      :      2.39s CPU      2.70s WALL (       1 calls)
     hinit0       :      1.92s CPU      2.02s WALL (       1 calls)

     Called by electrons:
     c_bands      :    181.12s CPU    289.89s WALL (      12 calls)
     sum_band     :     40.58s CPU     52.40s WALL (      12 calls)
     v_of_rho     :     12.89s CPU     14.12s WALL (      12 calls)
     v_h          :      1.24s CPU      1.31s WALL (      12 calls)
     v_xc         :     13.64s CPU     15.16s WALL (      14 calls)
     newd         :     19.05s CPU     25.05s WALL (      12 calls)
     mix_rho      :      2.30s CPU      2.71s WALL (      12 calls)

     Called by c_bands:
     init_us_2    :      1.23s CPU      1.44s WALL (      54 calls)
     init_us_2:cp :      1.23s CPU      1.44s WALL (      54 calls)
     cegterg      :    160.66s CPU    251.36s WALL (      24 calls)

     Called by sum_band:
     sum_band:wei :      0.11s CPU      0.11s WALL (      12 calls)
     sum_band:loo :     22.32s CPU     28.59s WALL (      12 calls)
     sum_band:buf :      0.17s CPU      0.18s WALL (      24 calls)
     sum_band:ini :      0.46s CPU      0.60s WALL (      24 calls)
     sum_band:cal :      4.60s CPU      9.50s WALL (      24 calls)
     sum_band:bec :      0.00s CPU      0.00s WALL (      24 calls)
     addusdens    :      3.98s CPU      8.23s WALL (      12 calls)
     addusd:skk   :      0.02s CPU      0.02s WALL (      24 calls)
     addusd:dgemm :      1.36s CPU      3.84s WALL (      24 calls)
     addusd:qvan2 :      1.30s CPU      2.87s WALL (      24 calls)

     Called by *egterg:
     cdiaghg      :      7.14s CPU     12.96s WALL (     118 calls)
     cegterg:over :     20.48s CPU     32.94s WALL (      96 calls)
     cegterg:upda :      3.77s CPU      6.58s WALL (      96 calls)
     cegterg:last :      4.47s CPU      5.04s WALL (      51 calls)
     h_psi        :    111.48s CPU    166.21s WALL (     122 calls)
     s_psi        :      3.09s CPU      4.01s WALL (     122 calls)
     g_psi        :      0.35s CPU      0.53s WALL (      96 calls)

     Called by h_psi:
     h_psi:calbec :     20.09s CPU     36.16s WALL (     122 calls)
     vloc_psi     :     86.56s CPU    120.87s WALL (     122 calls)
     add_vuspsi   :      4.53s CPU      8.50s WALL (     122 calls)

     General routines
     calbec       :     26.22s CPU     49.27s WALL (     156 calls)
     fft          :     10.69s CPU     11.61s WALL (     158 calls)
     ffts         :      1.27s CPU      1.34s WALL (      12 calls)
     fftw         :     85.52s CPU    117.92s WALL (    2340 calls)

     Parallel routines

     PWSCF        :   4m43.58s CPU   7m 4.30s WALL


   This run was terminated on:   4: 2: 4  24Feb2024            

=------------------------------------------------------------------------------=
   JOB DONE.
=------------------------------------------------------------------------------=
