
     Program PWSCF v.7.1 starts on 24Feb2024 at  3:17:44 

     This program is part of the open-source Quantum ESPRESSO suite
     for quantum simulation of materials; please cite
         "P. Giannozzi et al., J. Phys.:Condens. Matter 21 395502 (2009);
         "P. Giannozzi et al., J. Phys.:Condens. Matter 29 465901 (2017);
         "P. Giannozzi et al., J. Chem. Phys. 152 154105 (2020);
          URL http://www.quantum-espresso.org", 
     in publications or presentations arising from this work. More details at
     http://www.quantum-espresso.org/quote

     Parallel version (MPI), running on    24 processors

     MPI processes distributed on     1 nodes
     252921 MiB available memory on the printing compute node when the environment starts

     Reading input from ecut.200.in

     Current dimensions of program PWSCF are:
     Max number of different atomic species (ntypx) = 10
     Max number of k-points (npk) =  40000
     Max angular momentum in pseudopotentials (lmaxx) =  4

     K-points division:     npool     =       6
     R & G space division:  proc/nbgrp/npool/nimage =       4
     Subspace diagonalization in iterative solution of the eigenvalue problem:
     a serial algorithm will be used


     Parallelization info
     --------------------
     sticks:   dense  smooth     PW     G-vecs:    dense   smooth      PW
     Min         336     336     94                70086    70086   10434
     Max         337     337     96                70103    70103   10438
     Sum        1345    1345    379               280383   280383   41741

     Using Slab Decomposition



     bravais-lattice index     =            4
     lattice parameter (alat)  =       4.9229  a.u.
     unit-cell volume          =     733.7343 (a.u.)^3
     number of atoms/cell      =            4
     number of atomic types    =            2
     number of electrons       =        22.00
     number of Kohn-Sham states=           15
     kinetic-energy cutoff     =     200.0000  Ry
     charge density cutoff     =     800.0000  Ry
     scf convergence threshold =      1.0E-12
     mixing beta               =       0.7000
     number of iterations used =            8  plain     mixing
     Exchange-correlation=  SLA  PW   PBX  PBC
                           (   1   4   3   4   0   0   0)

     celldm(1)=   4.922852  celldm(2)=   0.000000  celldm(3)=   7.101627
     celldm(4)=   0.000000  celldm(5)=   0.000000  celldm(6)=   0.000000

     crystal axes: (cart. coord. in units of alat)
               a(1) = (   1.000000   0.000000   0.000000 )  
               a(2) = (  -0.500000   0.866025   0.000000 )  
               a(3) = (   0.000000   0.000000   7.101627 )  

     reciprocal axes: (cart. coord. in units 2 pi/alat)
               b(1) = (  1.000000  0.577350 -0.000000 )  
               b(2) = (  0.000000  1.154701  0.000000 )  
               b(3) = (  0.000000 -0.000000  0.140813 )  


     PseudoPot. # 1 for C  read from file:
     ../pseudo/c_pbe_v1.2.uspp.F.UPF
     MD5 check sum: d1aef80898a10debaa0f26306b886e00
     Pseudo is Ultrasoft + core correction, Zval =  4.0
     Generated by new atomic code, or converted to UPF format
     Using radial grid of  721 points,  4 beta functions with: 
                l(1) =   0
                l(2) =   0
                l(3) =   1
                l(4) =   1
     Q(r) pseudized with  8 coefficients,  rinner =    1.100   1.100   1.100


     PseudoPot. # 2 for F  read from file:
     ../pseudo/f_pbe_v1.4.uspp.F.UPF
     MD5 check sum: 4c38b6a325caf53ec0e86aed9459de46
     Pseudo is Ultrasoft, Zval =  7.0
     Generated by new atomic code, or converted to UPF format
     Using radial grid of  799 points,  4 beta functions with: 
                l(1) =   0
                l(2) =   0
                l(3) =   1
                l(4) =   1
     Q(r) pseudized with  8 coefficients,  rinner =    0.950   0.950   0.950


     atomic species   valence    mass     pseudopotential
        C              4.00    12.01070     C ( 1.00)
        F              7.00    18.99840     F ( 1.00)

     12 Sym. Ops., with inversion, found ( 8 have fractional translation)


                                    s                        frac. trans.

      isym =  1     identity                                     

 cryst.   s( 1) = (     1          0          0      )
                  (     0          1          0      )
                  (     0          0          1      )

 cart.    s( 1) = (  1.0000000  0.0000000  0.0000000 )
                  (  0.0000000  1.0000000  0.0000000 )
                  (  0.0000000  0.0000000  1.0000000 )


      isym =  2     180 deg rotation - cart. axis [1,0,0]        

 cryst.   s( 2) = (     1          0          0      )
                  (    -1         -1          0      )
                  (     0          0         -1      )

 cart.    s( 2) = (  1.0000000  0.0000000  0.0000000 )
                  (  0.0000000 -1.0000000  0.0000000 )
                  (  0.0000000  0.0000000 -1.0000000 )


      isym =  3     120 deg rotation - cryst. axis [0,0,1]       

 cryst.   s( 3) = (     0          1          0      )    f =( -0.5000000 )
                  (    -1         -1          0      )       ( -0.5000000 )
                  (     0          0          1      )       (  0.0000000 )

 cart.    s( 3) = ( -0.5000000 -0.8660254  0.0000000 )    f =( -0.2500000 )
                  (  0.8660254 -0.5000000  0.0000000 )       ( -0.4330127 )
                  (  0.0000000  0.0000000  1.0000000 )       (  0.0000000 )


      isym =  4     120 deg rotation - cryst. axis [0,0,-1]      

 cryst.   s( 4) = (    -1         -1          0      )    f =(  0.0000000 )
                  (     1          0          0      )       ( -0.5000000 )
                  (     0          0          1      )       (  0.0000000 )

 cart.    s( 4) = ( -0.5000000  0.8660254  0.0000000 )    f =(  0.2500000 )
                  ( -0.8660254 -0.5000000  0.0000000 )       ( -0.4330127 )
                  (  0.0000000  0.0000000  1.0000000 )       (  0.0000000 )


      isym =  5     180 deg rotation - cryst. axis [0,1,0]       

 cryst.   s( 5) = (    -1         -1          0      )    f =(  0.0000000 )
                  (     0          1          0      )       ( -0.5000000 )
                  (     0          0         -1      )       (  0.0000000 )

 cart.    s( 5) = ( -0.5000000 -0.8660254  0.0000000 )    f =(  0.2500000 )
                  ( -0.8660254  0.5000000  0.0000000 )       ( -0.4330127 )
                  (  0.0000000  0.0000000 -1.0000000 )       (  0.0000000 )


      isym =  6     180 deg rotation - cryst. axis [1,1,0]       

 cryst.   s( 6) = (     0          1          0      )    f =(  0.5000000 )
                  (     1          0          0      )       (  0.5000000 )
                  (     0          0         -1      )       (  0.0000000 )

 cart.    s( 6) = ( -0.5000000  0.8660254  0.0000000 )    f =(  0.2500000 )
                  (  0.8660254  0.5000000  0.0000000 )       (  0.4330127 )
                  (  0.0000000  0.0000000 -1.0000000 )       (  0.0000000 )


      isym =  7     inversion                                    

 cryst.   s( 7) = (    -1          0          0      )
                  (     0         -1          0      )
                  (     0          0         -1      )

 cart.    s( 7) = ( -1.0000000  0.0000000  0.0000000 )
                  (  0.0000000 -1.0000000  0.0000000 )
                  (  0.0000000  0.0000000 -1.0000000 )


      isym =  8     inv. 180 deg rotation - cart. axis [1,0,0]   

 cryst.   s( 8) = (    -1          0          0      )
                  (     1          1          0      )
                  (     0          0          1      )

 cart.    s( 8) = ( -1.0000000  0.0000000  0.0000000 )
                  (  0.0000000  1.0000000  0.0000000 )
                  (  0.0000000  0.0000000  1.0000000 )


      isym =  9     inv. 120 deg rotation - cryst. axis [0,0,1]  

 cryst.   s( 9) = (     0         -1          0      )    f =(  0.5000000 )
                  (     1          1          0      )       ( -0.5000000 )
                  (     0          0         -1      )       (  0.0000000 )

 cart.    s( 9) = (  0.5000000  0.8660254  0.0000000 )    f =(  0.7500000 )
                  ( -0.8660254  0.5000000  0.0000000 )       ( -0.4330127 )
                  (  0.0000000  0.0000000 -1.0000000 )       (  0.0000000 )


      isym = 10     inv. 120 deg rotation - cryst. axis [0,0,-1] 

 cryst.   s(10) = (     1          1          0      )    f =(  0.0000000 )
                  (    -1          0          0      )       (  0.5000000 )
                  (     0          0         -1      )       (  0.0000000 )

 cart.    s(10) = (  0.5000000 -0.8660254  0.0000000 )    f =( -0.2500000 )
                  (  0.8660254  0.5000000  0.0000000 )       (  0.4330127 )
                  (  0.0000000  0.0000000 -1.0000000 )       (  0.0000000 )


      isym = 11     inv. 180 deg rotation - cryst. axis [0,1,0]  

 cryst.   s(11) = (     1          1          0      )    f =(  0.0000000 )
                  (     0         -1          0      )       ( -0.5000000 )
                  (     0          0          1      )       (  0.0000000 )

 cart.    s(11) = (  0.5000000  0.8660254  0.0000000 )    f =(  0.2500000 )
                  (  0.8660254 -0.5000000  0.0000000 )       ( -0.4330127 )
                  (  0.0000000  0.0000000  1.0000000 )       (  0.0000000 )


      isym = 12     inv. 180 deg rotation - cryst. axis [1,1,0]  

 cryst.   s(12) = (     0         -1          0      )    f =( -0.5000000 )
                  (    -1          0          0      )       ( -0.5000000 )
                  (     0          0          1      )       (  0.0000000 )

 cart.    s(12) = (  0.5000000 -0.8660254  0.0000000 )    f =( -0.2500000 )
                  ( -0.8660254 -0.5000000  0.0000000 )       ( -0.4330127 )
                  (  0.0000000  0.0000000  1.0000000 )       (  0.0000000 )


     point group D_3d (-3m) 
     there are  6 classes
     the character table:

       E     2C3   3C2'  i     2S6   3s_d 
A_1g   1.00  1.00  1.00  1.00  1.00  1.00
A_2g   1.00  1.00 -1.00  1.00  1.00 -1.00
E_g    2.00 -1.00  0.00  2.00 -1.00  0.00
A_1u   1.00  1.00  1.00 -1.00 -1.00 -1.00
A_2u   1.00  1.00 -1.00 -1.00 -1.00  1.00
E_u    2.00 -1.00  0.00 -2.00  1.00  0.00

     the symmetry operations in each class and the name of the first element:

     E        1
          identity                                               
     2C3      3    4
          120 deg rotation - cryst. axis [0,0,1]                 
     3C2'     2    5    6
          180 deg rotation - cart. axis [1,0,0]                  
     i        7
          inversion                                              
     2S6      9   10
          inv. 120 deg rotation - cryst. axis [0,0,1]            
     3s_d     8   11   12
          inv. 180 deg rotation - cart. axis [1,0,0]             

   Cartesian axes

     site n.     atom                  positions (alat units)
         1           C   tau(   1) = (   0.5000000   0.5773503  -0.0938017  )
         2           C   tau(   2) = (  -0.0000000   0.2886751   0.0938017  )
         3           F   tau(   3) = (   0.5000000   0.5773503  -0.6235043  )
         4           F   tau(   4) = (  -0.0000000   0.2886751   0.6235043  )

   Crystallographic axes

     site n.     atom                  positions (cryst. coord.)
         1           C   tau(   1) = (  0.8333333  0.6666667 -0.0132085  )
         2           C   tau(   2) = (  0.1666667  0.3333333  0.0132085  )
         3           F   tau(   3) = (  0.8333333  0.6666667 -0.0877974  )
         4           F   tau(   4) = (  0.1666667  0.3333333  0.0877974  )

     number of k points=    12  Marzari-Vanderbilt smearing, width (Ry)=  0.0010
                       cart. coord. in units 2pi/alat
        k(    1) = (   0.0000000   0.0000000   0.0000000), wk =   0.0246914
        k(    2) = (   0.0000000   0.1283001   0.0000000), wk =   0.1481481
        k(    3) = (   0.0000000   0.2566001   0.0000000), wk =   0.1481481
        k(    4) = (   0.0000000   0.3849002   0.0000000), wk =   0.1481481
        k(    5) = (   0.0000000   0.5132002   0.0000000), wk =   0.1481481
        k(    6) = (   0.1111111   0.1924501   0.0000000), wk =   0.1481481
        k(    7) = (   0.1111111   0.3207501   0.0000000), wk =   0.2962963
        k(    8) = (   0.1111111   0.4490502   0.0000000), wk =   0.2962963
        k(    9) = (   0.1111111   0.5773503   0.0000000), wk =   0.1481481
        k(   10) = (   0.2222222   0.3849002   0.0000000), wk =   0.1481481
        k(   11) = (   0.2222222   0.5132002   0.0000000), wk =   0.2962963
        k(   12) = (   0.3333333   0.5773503   0.0000000), wk =   0.0493827

                       cryst. coord.
        k(    1) = (   0.0000000   0.0000000   0.0000000), wk =   0.0246914
        k(    2) = (   0.0000000   0.1111111   0.0000000), wk =   0.1481481
        k(    3) = (   0.0000000   0.2222222   0.0000000), wk =   0.1481481
        k(    4) = (   0.0000000   0.3333333   0.0000000), wk =   0.1481481
        k(    5) = (   0.0000000   0.4444444   0.0000000), wk =   0.1481481
        k(    6) = (   0.1111111   0.1111111   0.0000000), wk =   0.1481481
        k(    7) = (   0.1111111   0.2222222   0.0000000), wk =   0.2962963
        k(    8) = (   0.1111111   0.3333333   0.0000000), wk =   0.2962963
        k(    9) = (   0.1111111   0.4444444   0.0000000), wk =   0.1481481
        k(   10) = (   0.2222222   0.2222222   0.0000000), wk =   0.1481481
        k(   11) = (   0.2222222   0.3333333   0.0000000), wk =   0.2962963
        k(   12) = (   0.3333333   0.3333333   0.0000000), wk =   0.0493827

     Dense  grid:   280383 G-vectors     FFT dimensions: (  48,  48, 320)

     Dynamical RAM for                 wfc:       2.01 MB

     Dynamical RAM for     wfc (w. buffer):       6.02 MB

     Dynamical RAM for           str. fact:       2.14 MB

     Dynamical RAM for           local pot:       0.00 MB

     Dynamical RAM for          nlocal pot:       4.28 MB

     Dynamical RAM for                qrad:       1.30 MB

     Dynamical RAM for          rho,v,vnew:       7.43 MB

     Dynamical RAM for               rhoin:       2.48 MB

     Dynamical RAM for            rho*nmix:      17.11 MB

     Dynamical RAM for           G-vectors:       4.55 MB

     Dynamical RAM for          h,s,v(r/c):       0.04 MB

     Dynamical RAM for          <psi|beta>:       0.01 MB

     Dynamical RAM for                 psi:       4.01 MB

     Dynamical RAM for                hpsi:       4.01 MB

     Dynamical RAM for                spsi:       4.01 MB

     Dynamical RAM for      wfcinit/wfcrot:       4.28 MB

     Dynamical RAM for           addusdens:       8.91 MB

     Dynamical RAM for          addusforce:       8.92 MB

     Dynamical RAM for         addusstress:       9.36 MB

     Estimated static dynamical RAM per process >      38.42 MB

     Estimated max dynamical RAM per process >      67.61 MB

     Estimated total dynamical RAM >       1.25 GB

     Initial potential from superposition of free atoms

     starting charge      21.9999, renormalised to      22.0000

     negative rho (up, down):  8.377E-05 0.000E+00
     Starting wfcs are   16 randomized atomic wfcs

     total cpu time spent up to now is        5.4 secs

     Self-consistent Calculation

     iteration #  1     ecut=   200.00 Ry     beta= 0.70
     Davidson diagonalization with overlap

---- Real-time Memory Report at c_bands before calling an iterative solver
            76 MiB given to the printing process from OS
             0 MiB allocation reported by mallinfo(arena+hblkhd)
        250727 MiB available memory on the node where the printing process lives
------------------
     ethr =  1.00E-02,  avg # of iterations =  3.5

     Threshold (ethr) on eigenvalues was too large:
     Diagonalizing with lowered threshold

     Davidson diagonalization with overlap

---- Real-time Memory Report at c_bands before calling an iterative solver
            85 MiB given to the printing process from OS
             0 MiB allocation reported by mallinfo(arena+hblkhd)
        250503 MiB available memory on the node where the printing process lives
------------------
     ethr =  9.45E-04,  avg # of iterations =  1.1

     negative rho (up, down):  7.291E-05 0.000E+00

     total cpu time spent up to now is       29.9 secs

     total energy              =    -120.08883252 Ry
     estimated scf accuracy    <       0.20504290 Ry

     iteration #  2     ecut=   200.00 Ry     beta= 0.70
     Davidson diagonalization with overlap

---- Real-time Memory Report at c_bands before calling an iterative solver
           101 MiB given to the printing process from OS
             0 MiB allocation reported by mallinfo(arena+hblkhd)
        250409 MiB available memory on the node where the printing process lives
------------------
     ethr =  9.32E-04,  avg # of iterations =  2.4

     negative rho (up, down):  7.461E-05 0.000E+00

     total cpu time spent up to now is       43.7 secs

     total energy              =    -120.10151717 Ry
     estimated scf accuracy    <       0.10595535 Ry

     iteration #  3     ecut=   200.00 Ry     beta= 0.70
     Davidson diagonalization with overlap

---- Real-time Memory Report at c_bands before calling an iterative solver
           105 MiB given to the printing process from OS
             0 MiB allocation reported by mallinfo(arena+hblkhd)
        250106 MiB available memory on the node where the printing process lives
------------------
     ethr =  4.82E-04,  avg # of iterations =  2.7

     negative rho (up, down):  7.353E-05 0.000E+00

     total cpu time spent up to now is       59.0 secs

     total energy              =    -120.13103655 Ry
     estimated scf accuracy    <       0.01522388 Ry

     iteration #  4     ecut=   200.00 Ry     beta= 0.70
     Davidson diagonalization with overlap

---- Real-time Memory Report at c_bands before calling an iterative solver
           107 MiB given to the printing process from OS
             0 MiB allocation reported by mallinfo(arena+hblkhd)
        250094 MiB available memory on the node where the printing process lives
------------------
     ethr =  6.92E-05,  avg # of iterations =  6.2

     negative rho (up, down):  7.461E-05 0.000E+00

     total cpu time spent up to now is       83.0 secs

     total energy              =    -120.13356881 Ry
     estimated scf accuracy    <       0.00012663 Ry

     iteration #  5     ecut=   200.00 Ry     beta= 0.70
     Davidson diagonalization with overlap

---- Real-time Memory Report at c_bands before calling an iterative solver
           109 MiB given to the printing process from OS
             0 MiB allocation reported by mallinfo(arena+hblkhd)
        250436 MiB available memory on the node where the printing process lives
------------------
     ethr =  5.76E-07,  avg # of iterations =  5.2

     negative rho (up, down):  7.471E-05 0.000E+00

     total cpu time spent up to now is      105.2 secs

     total energy              =    -120.13360728 Ry
     estimated scf accuracy    <       0.00000673 Ry

     iteration #  6     ecut=   200.00 Ry     beta= 0.70
     Davidson diagonalization with overlap

---- Real-time Memory Report at c_bands before calling an iterative solver
           112 MiB given to the printing process from OS
             0 MiB allocation reported by mallinfo(arena+hblkhd)
        250082 MiB available memory on the node where the printing process lives
------------------
     ethr =  3.06E-08,  avg # of iterations =  2.0

     negative rho (up, down):  7.472E-05 0.000E+00

     total cpu time spent up to now is      117.3 secs

     total energy              =    -120.13360820 Ry
     estimated scf accuracy    <       0.00000025 Ry

     iteration #  7     ecut=   200.00 Ry     beta= 0.70
     Davidson diagonalization with overlap

---- Real-time Memory Report at c_bands before calling an iterative solver
           114 MiB given to the printing process from OS
             0 MiB allocation reported by mallinfo(arena+hblkhd)
        251800 MiB available memory on the node where the printing process lives
------------------
     ethr =  1.14E-09,  avg # of iterations =  2.4

     negative rho (up, down):  7.472E-05 0.000E+00

     total cpu time spent up to now is      130.6 secs

     total energy              =    -120.13360829 Ry
     estimated scf accuracy    <       0.00000005 Ry

     iteration #  8     ecut=   200.00 Ry     beta= 0.70
     Davidson diagonalization with overlap

---- Real-time Memory Report at c_bands before calling an iterative solver
           116 MiB given to the printing process from OS
             0 MiB allocation reported by mallinfo(arena+hblkhd)
        250678 MiB available memory on the node where the printing process lives
------------------
     ethr =  2.15E-10,  avg # of iterations =  2.0

     negative rho (up, down):  7.472E-05 0.000E+00

     total cpu time spent up to now is      143.3 secs

     total energy              =    -120.13360830 Ry
     estimated scf accuracy    <          1.2E-10 Ry

     iteration #  9     ecut=   200.00 Ry     beta= 0.70
     Davidson diagonalization with overlap

---- Real-time Memory Report at c_bands before calling an iterative solver
           118 MiB given to the printing process from OS
             0 MiB allocation reported by mallinfo(arena+hblkhd)
        250053 MiB available memory on the node where the printing process lives
------------------
     ethr =  5.34E-13,  avg # of iterations =  4.0

     negative rho (up, down):  7.472E-05 0.000E+00

     total cpu time spent up to now is      161.0 secs

     total energy              =    -120.13360830 Ry
     estimated scf accuracy    <          3.6E-11 Ry

     iteration # 10     ecut=   200.00 Ry     beta= 0.70
     Davidson diagonalization with overlap

---- Real-time Memory Report at c_bands before calling an iterative solver
           120 MiB given to the printing process from OS
             0 MiB allocation reported by mallinfo(arena+hblkhd)
        250360 MiB available memory on the node where the printing process lives
------------------
     ethr =  1.64E-13,  avg # of iterations =  2.0

     negative rho (up, down):  7.472E-05 0.000E+00

     total cpu time spent up to now is      174.5 secs

     total energy              =    -120.13360830 Ry
     estimated scf accuracy    <          2.8E-12 Ry

     iteration # 11     ecut=   200.00 Ry     beta= 0.70
     Davidson diagonalization with overlap

---- Real-time Memory Report at c_bands before calling an iterative solver
           120 MiB given to the printing process from OS
             0 MiB allocation reported by mallinfo(arena+hblkhd)
        250056 MiB available memory on the node where the printing process lives
------------------
     ethr =  1.00E-13,  avg # of iterations =  1.0

     negative rho (up, down):  7.472E-05 0.000E+00

     total cpu time spent up to now is      183.7 secs

     End of self-consistent calculation

          k = 0.0000 0.0000 0.0000 ( 34921 PWs)   bands (ev):

   -29.3985 -28.9024 -20.1889 -12.8243  -9.8422  -8.0994  -8.0994  -6.9219
    -6.9219  -3.9527  -3.9527  -0.8109   3.4096   3.4096   3.5112

     occupation numbers 
     1.0000   1.0000   1.0000   1.0000   1.0000   1.0000   1.0000   1.0000
     1.0000   1.0000   1.0000   0.0000   0.0000   0.0000   0.0000

          k = 0.0000 0.1283 0.0000 ( 34941 PWs)   bands (ev):

   -29.2925 -28.8268 -19.9992 -12.7257  -9.9385  -8.8927  -8.3608  -7.1333
    -6.9671  -4.6905  -4.2200  -0.2278   3.4847   3.8846   4.1926

     occupation numbers 
     1.0000   1.0000   1.0000   1.0000   1.0000   1.0000   1.0000   1.0000
     1.0000   1.0000   1.0000   0.0000   0.0000   0.0000   0.0000

          k = 0.0000 0.2566 0.0000 ( 35005 PWs)   bands (ev):

   -29.0118 -28.6318 -19.4324 -12.5181 -10.8362 -10.0607  -8.9685  -7.6268
    -7.0990  -6.0281  -4.7100   0.6373   3.7089   4.8975   5.3330

     occupation numbers 
     1.0000   1.0000   1.0000   1.0000   1.0000   1.0000   1.0000   1.0000
     1.0000   1.0000   1.0000   0.0000   0.0000   0.0000   0.0000

          k = 0.0000 0.3849 0.0000 ( 35033 PWs)   bands (ev):

   -28.6643 -28.4074 -18.4939 -13.3504 -11.8016 -10.4604  -9.5842  -8.1012
    -7.2608  -7.1934  -5.1008   1.1689   4.1212   5.8480   7.6682

     occupation numbers 
     1.0000   1.0000   1.0000   1.0000   1.0000   1.0000   1.0000   1.0000
     1.0000   1.0000   1.0000   0.0000   0.0000   0.0000   0.0000

          k = 0.0000 0.5132 0.0000 ( 35066 PWs)   bands (ev):

   -28.4069 -28.2716 -17.2298 -15.2468 -11.6312 -10.7448  -9.9509  -8.3903
    -7.8383  -7.3685  -5.3059   1.4260   4.5379   5.1409   8.6134

     occupation numbers 
     1.0000   1.0000   1.0000   1.0000   1.0000   1.0000   1.0000   1.0000
     1.0000   1.0000   1.0000   0.0000   0.0000   0.0000   0.0000

          k = 0.1111 0.1925 0.0000 ( 35017 PWs)   bands (ev):

   -29.0990 -28.6913 -19.6209 -12.5642 -10.1643 -10.0512  -8.9110  -7.3694
    -7.1913  -5.5366  -4.7474   0.5653   3.9647   4.5950   4.6925

     occupation numbers 
     1.0000   1.0000   1.0000   1.0000   1.0000   1.0000   1.0000   1.0000
     1.0000   1.0000   1.0000   0.0000   0.0000   0.0000   0.0000

          k = 0.1111 0.3208 0.0000 ( 35029 PWs)   bands (ev):

   -28.7835 -28.4802 -18.8667 -12.6227 -11.5424 -10.5479  -9.6322  -7.8408
    -7.4895  -6.5318  -5.3033   1.4958   4.4697   5.7749   6.2191

     occupation numbers 
     1.0000   1.0000   1.0000   1.0000   1.0000   1.0000   1.0000   1.0000
     1.0000   1.0000   1.0000   0.0000   0.0000   0.0000   0.0000

          k = 0.1111 0.4491 0.0000 ( 35075 PWs)   bands (ev):

   -28.4768 -28.2988 -17.7483 -14.2289 -11.6899 -10.8167 -10.2343  -8.3217
    -7.7178  -7.2429  -5.6129   2.1644   4.7802   5.6224   7.8914

     occupation numbers 
     1.0000   1.0000   1.0000   1.0000   1.0000   1.0000   1.0000   1.0000
     1.0000   1.0000   1.0000   0.0000   0.0000   0.0000   0.0000

          k = 0.1111 0.5774 0.0000 ( 35085 PWs)   bands (ev):

   -28.3369 -28.2389 -16.6293 -15.6633 -11.6357 -10.7683 -10.5848  -8.5094
    -7.8367  -7.4636  -5.7134   2.4673   4.9996   5.0002   8.2611

     occupation numbers 
     1.0000   1.0000   1.0000   1.0000   1.0000   1.0000   1.0000   1.0000
     1.0000   1.0000   1.0000   0.0000   0.0000   0.0000   0.0000

          k = 0.2222 0.3849 0.0000 ( 35087 PWs)   bands (ev):

   -28.5059 -28.3099 -17.9262 -13.4689 -11.6287 -11.4806 -10.2558  -8.2753
    -7.8146  -6.9054  -6.0345   2.7374   5.8173   6.5552   6.6839

     occupation numbers 
     1.0000   1.0000   1.0000   1.0000   1.0000   1.0000   1.0000   1.0000
     1.0000   1.0000   1.0000   0.0000   0.0000   0.0000   0.0000

          k = 0.2222 0.5132 0.0000 ( 35077 PWs)   bands (ev):

   -28.3008 -28.2129 -16.6697 -14.8659 -12.3422 -11.1694 -10.6664  -8.6637
    -7.7340  -7.3806  -6.3914   3.7603   5.3451   6.4895   7.4554

     occupation numbers 
     1.0000   1.0000   1.0000   1.0000   1.0000   1.0000   1.0000   1.0000
     1.0000   1.0000   1.0000   0.0000   0.0000   0.0000   0.0000

          k = 0.3333 0.5774 0.0000 ( 35073 PWs)   bands (ev):

   -28.2050 -28.2050 -15.5340 -15.5340 -13.1926 -10.9159 -10.9159  -8.8359
    -7.5001  -7.5001  -6.8613   4.8184   4.8184   7.0287   8.4942

     occupation numbers 
     1.0000   1.0000   1.0000   1.0000   1.0000   1.0000   1.0000   1.0000
     1.0000   1.0000   1.0000   0.0000   0.0000   0.0000   0.0000

     the Fermi energy is    -3.2143 ev

!    total energy              =    -120.13360830 Ry
     estimated scf accuracy    <          8.0E-14 Ry
     smearing contrib. (-TS)   =       0.00000000 Ry
     internal energy E=F+TS    =    -120.13360830 Ry

     The total energy is F=E-TS. E is the sum of the following terms:
     one-electron contribution =    -975.19784207 Ry
     hartree contribution      =     493.36037925 Ry
     xc contribution           =     -25.85837178 Ry
     ewald contribution        =     387.56222630 Ry

     convergence has been achieved in  11 iterations

     negative rho (up, down):  7.472E-05 0.000E+00

     Forces acting on atoms (cartesian axes, Ry/au):

     atom    1 type  1   force =     0.00000000    0.00000000   -0.00034244
     atom    2 type  1   force =     0.00000000    0.00000000    0.00034244
     atom    3 type  2   force =    -0.00000000    0.00000000   -0.00000067
     atom    4 type  2   force =     0.00000000   -0.00000000    0.00000067
     The non-local contrib.  to forces
     atom    1 type  1   force =    -0.00000000   -0.00000000   -0.39800842
     atom    2 type  1   force =     0.00000000    0.00000000    0.39800842
     atom    3 type  2   force =     0.00000000   -0.00000000    2.50684255
     atom    4 type  2   force =     0.00000000    0.00000000   -2.50684255
     The ionic contribution  to forces
     atom    1 type  1   force =    -0.00000001    0.00000000   -1.16488099
     atom    2 type  1   force =     0.00000001   -0.00000000    1.16488099
     atom    3 type  2   force =    -0.00000000    0.00000000  -48.74159951
     atom    4 type  2   force =     0.00000000   -0.00000000   48.74159951
     The local contribution  to forces
     atom    1 type  1   force =    -0.00000000   -0.00000000    1.55937800
     atom    2 type  1   force =     0.00000001   -0.00000001   -1.55937801
     atom    3 type  2   force =    -0.00000000    0.00000001   46.23475555
     atom    4 type  2   force =     0.00000016   -0.00000008  -46.23475559
     The core correction contribution to forces
     atom    1 type  1   force =    -0.00000000   -0.00000000    0.00316882
     atom    2 type  1   force =    -0.00000000   -0.00000000   -0.00316882
     atom    3 type  2   force =     0.00000000    0.00000000    0.00000000
     atom    4 type  2   force =     0.00000000    0.00000000    0.00000000
     The Hubbard contrib.    to forces
     atom    1 type  1   force =     0.00000000    0.00000000    0.00000000
     atom    2 type  1   force =     0.00000000    0.00000000    0.00000000
     atom    3 type  2   force =     0.00000000    0.00000000    0.00000000
     atom    4 type  2   force =     0.00000000    0.00000000    0.00000000
     The SCF correction term to forces
     atom    1 type  1   force =     0.00000000    0.00000000    0.00000013
     atom    2 type  1   force =    -0.00000000    0.00000000   -0.00000013
     atom    3 type  2   force =    -0.00000000   -0.00000000    0.00000072
     atom    4 type  2   force =    -0.00000000    0.00000000   -0.00000072

     Total force =     0.000484     Total SCF correction =     0.000001


     Computing stress (Cartesian axis) and pressure


     negative rho (up, down):  7.472E-05 0.000E+00
          total   stress  (Ry/bohr**3)                   (kbar)     P=       -0.04
   0.00000003   0.00000000   0.00000000            0.00        0.00        0.00
   0.00000000   0.00000003   0.00000000            0.00        0.00        0.00
  -0.00000000  -0.00000000  -0.00000090           -0.00       -0.00       -0.13

     kinetic stress (kbar)   6755.74     -0.00      0.00
                               -0.00   6755.74     -0.00
                                0.00     -0.00   6005.04

     local   stress (kbar)-188576.23      0.00     -0.00
                                0.00-188576.23      0.00
                               -0.00      0.00 183501.25

     nonloc. stress (kbar)    872.54      0.00      0.00
                                0.00    872.54      0.00
                                0.00      0.00    677.12

     hartree stress (kbar)  94250.17     -0.00      0.00
                               -0.00  94250.17     -0.00
                                0.00     -0.00 -89587.39

     exc-cor stress (kbar)  -1583.32     -0.00      0.00
                               -0.00  -1583.32     -0.00
                                0.00     -0.00  -1573.08

     corecor stress (kbar)    -54.54      0.00     -0.00
                                0.00    -54.54      0.00
                               -0.00      0.00    -53.44

     ewald   stress (kbar)  88335.65     -0.00      0.00
                               -0.00  88335.65     -0.00
                                0.00     -0.00 -98969.63

     hubbard stress (kbar)      0.00      0.00      0.00
                                0.00      0.00      0.00
                                0.00      0.00      0.00

     DFT-D   stress (kbar)      0.00      0.00      0.00
                                0.00      0.00      0.00
                                0.00      0.00      0.00

     XDM     stress (kbar)      0.00      0.00      0.00
                                0.00      0.00      0.00
                                0.00      0.00      0.00

     dft-nl  stress (kbar)      0.00      0.00      0.00
                                0.00      0.00      0.00
                                0.00      0.00      0.00

     TS-vdW  stress (kbar)      0.00      0.00      0.00
                                0.00      0.00      0.00
                                0.00      0.00      0.00

     MDB     stress (kbar)      0.00      0.00      0.00
                                0.00      0.00      0.00
                                0.00      0.00      0.00

     3D-RISM stress (kbar)      0.00      0.00      0.00
                                0.00      0.00      0.00
                                0.00      0.00      0.00


     Writing all to output data dir ../tmp/fgc.save/

     init_run     :      2.31s CPU      3.94s WALL (       1 calls)
     electrons    :     95.50s CPU    178.51s WALL (       1 calls)
     forces       :      1.29s CPU      3.09s WALL (       1 calls)
     stress       :      1.52s CPU      3.01s WALL (       1 calls)

     Called by init_run:
     wfcinit      :      1.14s CPU      2.43s WALL (       1 calls)
     wfcinit:atom :      0.00s CPU      0.00s WALL (       2 calls)
     wfcinit:wfcr :      1.10s CPU      2.38s WALL (       2 calls)
     potinit      :      0.40s CPU      0.45s WALL (       1 calls)
     hinit0       :      0.47s CPU      0.48s WALL (       1 calls)

     Called by electrons:
     c_bands      :     80.91s CPU    152.25s WALL (      12 calls)
     sum_band     :      8.93s CPU     17.07s WALL (      12 calls)
     v_of_rho     :      1.31s CPU      2.27s WALL (      12 calls)
     v_h          :      0.09s CPU      0.15s WALL (      12 calls)
     v_xc         :      1.35s CPU      2.27s WALL (      14 calls)
     newd         :      3.69s CPU      6.29s WALL (      12 calls)
     mix_rho      :      0.19s CPU      0.23s WALL (      12 calls)

     Called by c_bands:
     init_us_2    :      0.09s CPU      0.15s WALL (      54 calls)
     init_us_2:cp :      0.09s CPU      0.15s WALL (      54 calls)
     cegterg      :     57.87s CPU    110.55s WALL (      24 calls)

     Called by sum_band:
     sum_band:wei :      0.22s CPU      0.23s WALL (      12 calls)
     sum_band:loo :      4.01s CPU      8.19s WALL (      12 calls)
     sum_band:buf :      0.01s CPU      0.04s WALL (      24 calls)
     sum_band:ini :      0.03s CPU      0.04s WALL (      24 calls)
     sum_band:cal :      2.50s CPU      5.86s WALL (      24 calls)
     sum_band:bec :      0.00s CPU      0.00s WALL (      24 calls)
     addusdens    :      1.29s CPU      3.73s WALL (      12 calls)
     addusd:skk   :      0.00s CPU      0.00s WALL (      24 calls)
     addusd:dgemm :      0.43s CPU      1.76s WALL (      24 calls)
     addusd:qvan2 :      0.06s CPU      0.05s WALL (      24 calls)

     Called by *egterg:
     cdiaghg      :      6.25s CPU     10.93s WALL (     102 calls)
     cegterg:over :     12.91s CPU     22.64s WALL (      80 calls)
     cegterg:upda :      1.22s CPU      2.96s WALL (      80 calls)
     cegterg:last :      1.25s CPU      2.77s WALL (      49 calls)
     h_psi        :     26.83s CPU     54.69s WALL (     106 calls)
     s_psi        :      0.46s CPU      0.86s WALL (     106 calls)
     g_psi        :      0.02s CPU      0.02s WALL (      80 calls)

     Called by h_psi:
     h_psi:calbec :     10.51s CPU     20.92s WALL (     106 calls)
     vloc_psi     :     14.48s CPU     28.91s WALL (     106 calls)
     add_vuspsi   :      1.82s CPU      4.83s WALL (     106 calls)

     General routines
     calbec       :     13.84s CPU     29.13s WALL (     140 calls)
     fft          :      1.10s CPU      1.89s WALL (     158 calls)
     ffts         :      0.29s CPU      0.37s WALL (      12 calls)
     fftw         :     15.45s CPU     30.22s WALL (    2284 calls)

     Parallel routines

     PWSCF        :   1m41.28s CPU   3m10.69s WALL


   This run was terminated on:   3:20:55  24Feb2024            

=------------------------------------------------------------------------------=
   JOB DONE.
=------------------------------------------------------------------------------=
