
     Program PWSCF v.7.1 starts on 24Feb2024 at  3:21: 1 

     This program is part of the open-source Quantum ESPRESSO suite
     for quantum simulation of materials; please cite
         "P. Giannozzi et al., J. Phys.:Condens. Matter 21 395502 (2009);
         "P. Giannozzi et al., J. Phys.:Condens. Matter 29 465901 (2017);
         "P. Giannozzi et al., J. Chem. Phys. 152 154105 (2020);
          URL http://www.quantum-espresso.org", 
     in publications or presentations arising from this work. More details at
     http://www.quantum-espresso.org/quote

     Parallel version (MPI), running on    24 processors

     MPI processes distributed on     1 nodes
     251471 MiB available memory on the printing compute node when the environment starts

     Reading input from ecut.300.in

     Current dimensions of program PWSCF are:
     Max number of different atomic species (ntypx) = 10
     Max number of k-points (npk) =  40000
     Max angular momentum in pseudopotentials (lmaxx) =  4

     K-points division:     npool     =       6
     R & G space division:  proc/nbgrp/npool/nimage =       4
     Subspace diagonalization in iterative solution of the eigenvalue problem:
     a serial algorithm will be used


     Parallelization info
     --------------------
     sticks:   dense  smooth     PW     G-vecs:    dense   smooth      PW
     Min         498     498    139               128692   128692   18611
     Max         499     499    140               128717   128717   18628
     Sum        1993    1993    559               514801   514801   74477

     Using Slab Decomposition



     bravais-lattice index     =            4
     lattice parameter (alat)  =       4.9229  a.u.
     unit-cell volume          =     733.7343 (a.u.)^3
     number of atoms/cell      =            4
     number of atomic types    =            2
     number of electrons       =        22.00
     number of Kohn-Sham states=           15
     kinetic-energy cutoff     =     300.0000  Ry
     charge density cutoff     =    1200.0000  Ry
     scf convergence threshold =      1.0E-12
     mixing beta               =       0.7000
     number of iterations used =            8  plain     mixing
     Exchange-correlation=  SLA  PW   PBX  PBC
                           (   1   4   3   4   0   0   0)

     celldm(1)=   4.922852  celldm(2)=   0.000000  celldm(3)=   7.101627
     celldm(4)=   0.000000  celldm(5)=   0.000000  celldm(6)=   0.000000

     crystal axes: (cart. coord. in units of alat)
               a(1) = (   1.000000   0.000000   0.000000 )  
               a(2) = (  -0.500000   0.866025   0.000000 )  
               a(3) = (   0.000000   0.000000   7.101627 )  

     reciprocal axes: (cart. coord. in units 2 pi/alat)
               b(1) = (  1.000000  0.577350 -0.000000 )  
               b(2) = (  0.000000  1.154701  0.000000 )  
               b(3) = (  0.000000 -0.000000  0.140813 )  


     PseudoPot. # 1 for C  read from file:
     ../pseudo/c_pbe_v1.2.uspp.F.UPF
     MD5 check sum: d1aef80898a10debaa0f26306b886e00
     Pseudo is Ultrasoft + core correction, Zval =  4.0
     Generated by new atomic code, or converted to UPF format
     Using radial grid of  721 points,  4 beta functions with: 
                l(1) =   0
                l(2) =   0
                l(3) =   1
                l(4) =   1
     Q(r) pseudized with  8 coefficients,  rinner =    1.100   1.100   1.100


     PseudoPot. # 2 for F  read from file:
     ../pseudo/f_pbe_v1.4.uspp.F.UPF
     MD5 check sum: 4c38b6a325caf53ec0e86aed9459de46
     Pseudo is Ultrasoft, Zval =  7.0
     Generated by new atomic code, or converted to UPF format
     Using radial grid of  799 points,  4 beta functions with: 
                l(1) =   0
                l(2) =   0
                l(3) =   1
                l(4) =   1
     Q(r) pseudized with  8 coefficients,  rinner =    0.950   0.950   0.950


     atomic species   valence    mass     pseudopotential
        C              4.00    12.01070     C ( 1.00)
        F              7.00    18.99840     F ( 1.00)

     12 Sym. Ops., with inversion, found ( 8 have fractional translation)


                                    s                        frac. trans.

      isym =  1     identity                                     

 cryst.   s( 1) = (     1          0          0      )
                  (     0          1          0      )
                  (     0          0          1      )

 cart.    s( 1) = (  1.0000000  0.0000000  0.0000000 )
                  (  0.0000000  1.0000000  0.0000000 )
                  (  0.0000000  0.0000000  1.0000000 )


      isym =  2     180 deg rotation - cart. axis [1,0,0]        

 cryst.   s( 2) = (     1          0          0      )
                  (    -1         -1          0      )
                  (     0          0         -1      )

 cart.    s( 2) = (  1.0000000  0.0000000  0.0000000 )
                  (  0.0000000 -1.0000000  0.0000000 )
                  (  0.0000000  0.0000000 -1.0000000 )


      isym =  3     120 deg rotation - cryst. axis [0,0,1]       

 cryst.   s( 3) = (     0          1          0      )    f =( -0.5000000 )
                  (    -1         -1          0      )       ( -0.5000000 )
                  (     0          0          1      )       (  0.0000000 )

 cart.    s( 3) = ( -0.5000000 -0.8660254  0.0000000 )    f =( -0.2500000 )
                  (  0.8660254 -0.5000000  0.0000000 )       ( -0.4330127 )
                  (  0.0000000  0.0000000  1.0000000 )       (  0.0000000 )


      isym =  4     120 deg rotation - cryst. axis [0,0,-1]      

 cryst.   s( 4) = (    -1         -1          0      )    f =(  0.0000000 )
                  (     1          0          0      )       ( -0.5000000 )
                  (     0          0          1      )       (  0.0000000 )

 cart.    s( 4) = ( -0.5000000  0.8660254  0.0000000 )    f =(  0.2500000 )
                  ( -0.8660254 -0.5000000  0.0000000 )       ( -0.4330127 )
                  (  0.0000000  0.0000000  1.0000000 )       (  0.0000000 )


      isym =  5     180 deg rotation - cryst. axis [0,1,0]       

 cryst.   s( 5) = (    -1         -1          0      )    f =(  0.0000000 )
                  (     0          1          0      )       ( -0.5000000 )
                  (     0          0         -1      )       (  0.0000000 )

 cart.    s( 5) = ( -0.5000000 -0.8660254  0.0000000 )    f =(  0.2500000 )
                  ( -0.8660254  0.5000000  0.0000000 )       ( -0.4330127 )
                  (  0.0000000  0.0000000 -1.0000000 )       (  0.0000000 )


      isym =  6     180 deg rotation - cryst. axis [1,1,0]       

 cryst.   s( 6) = (     0          1          0      )    f =(  0.5000000 )
                  (     1          0          0      )       (  0.5000000 )
                  (     0          0         -1      )       (  0.0000000 )

 cart.    s( 6) = ( -0.5000000  0.8660254  0.0000000 )    f =(  0.2500000 )
                  (  0.8660254  0.5000000  0.0000000 )       (  0.4330127 )
                  (  0.0000000  0.0000000 -1.0000000 )       (  0.0000000 )


      isym =  7     inversion                                    

 cryst.   s( 7) = (    -1          0          0      )
                  (     0         -1          0      )
                  (     0          0         -1      )

 cart.    s( 7) = ( -1.0000000  0.0000000  0.0000000 )
                  (  0.0000000 -1.0000000  0.0000000 )
                  (  0.0000000  0.0000000 -1.0000000 )


      isym =  8     inv. 180 deg rotation - cart. axis [1,0,0]   

 cryst.   s( 8) = (    -1          0          0      )
                  (     1          1          0      )
                  (     0          0          1      )

 cart.    s( 8) = ( -1.0000000  0.0000000  0.0000000 )
                  (  0.0000000  1.0000000  0.0000000 )
                  (  0.0000000  0.0000000  1.0000000 )


      isym =  9     inv. 120 deg rotation - cryst. axis [0,0,1]  

 cryst.   s( 9) = (     0         -1          0      )    f =(  0.5000000 )
                  (     1          1          0      )       ( -0.5000000 )
                  (     0          0         -1      )       (  0.0000000 )

 cart.    s( 9) = (  0.5000000  0.8660254  0.0000000 )    f =(  0.7500000 )
                  ( -0.8660254  0.5000000  0.0000000 )       ( -0.4330127 )
                  (  0.0000000  0.0000000 -1.0000000 )       (  0.0000000 )


      isym = 10     inv. 120 deg rotation - cryst. axis [0,0,-1] 

 cryst.   s(10) = (     1          1          0      )    f =(  0.0000000 )
                  (    -1          0          0      )       (  0.5000000 )
                  (     0          0         -1      )       (  0.0000000 )

 cart.    s(10) = (  0.5000000 -0.8660254  0.0000000 )    f =( -0.2500000 )
                  (  0.8660254  0.5000000  0.0000000 )       (  0.4330127 )
                  (  0.0000000  0.0000000 -1.0000000 )       (  0.0000000 )


      isym = 11     inv. 180 deg rotation - cryst. axis [0,1,0]  

 cryst.   s(11) = (     1          1          0      )    f =(  0.0000000 )
                  (     0         -1          0      )       ( -0.5000000 )
                  (     0          0          1      )       (  0.0000000 )

 cart.    s(11) = (  0.5000000  0.8660254  0.0000000 )    f =(  0.2500000 )
                  (  0.8660254 -0.5000000  0.0000000 )       ( -0.4330127 )
                  (  0.0000000  0.0000000  1.0000000 )       (  0.0000000 )


      isym = 12     inv. 180 deg rotation - cryst. axis [1,1,0]  

 cryst.   s(12) = (     0         -1          0      )    f =( -0.5000000 )
                  (    -1          0          0      )       ( -0.5000000 )
                  (     0          0          1      )       (  0.0000000 )

 cart.    s(12) = (  0.5000000 -0.8660254  0.0000000 )    f =( -0.2500000 )
                  ( -0.8660254 -0.5000000  0.0000000 )       ( -0.4330127 )
                  (  0.0000000  0.0000000  1.0000000 )       (  0.0000000 )


     point group D_3d (-3m) 
     there are  6 classes
     the character table:

       E     2C3   3C2'  i     2S6   3s_d 
A_1g   1.00  1.00  1.00  1.00  1.00  1.00
A_2g   1.00  1.00 -1.00  1.00  1.00 -1.00
E_g    2.00 -1.00  0.00  2.00 -1.00  0.00
A_1u   1.00  1.00  1.00 -1.00 -1.00 -1.00
A_2u   1.00  1.00 -1.00 -1.00 -1.00  1.00
E_u    2.00 -1.00  0.00 -2.00  1.00  0.00

     the symmetry operations in each class and the name of the first element:

     E        1
          identity                                               
     2C3      3    4
          120 deg rotation - cryst. axis [0,0,1]                 
     3C2'     2    5    6
          180 deg rotation - cart. axis [1,0,0]                  
     i        7
          inversion                                              
     2S6      9   10
          inv. 120 deg rotation - cryst. axis [0,0,1]            
     3s_d     8   11   12
          inv. 180 deg rotation - cart. axis [1,0,0]             

   Cartesian axes

     site n.     atom                  positions (alat units)
         1           C   tau(   1) = (   0.5000000   0.5773503  -0.0938017  )
         2           C   tau(   2) = (  -0.0000000   0.2886751   0.0938017  )
         3           F   tau(   3) = (   0.5000000   0.5773503  -0.6235043  )
         4           F   tau(   4) = (  -0.0000000   0.2886751   0.6235043  )

   Crystallographic axes

     site n.     atom                  positions (cryst. coord.)
         1           C   tau(   1) = (  0.8333333  0.6666667 -0.0132085  )
         2           C   tau(   2) = (  0.1666667  0.3333333  0.0132085  )
         3           F   tau(   3) = (  0.8333333  0.6666667 -0.0877974  )
         4           F   tau(   4) = (  0.1666667  0.3333333  0.0877974  )

     number of k points=    12  Marzari-Vanderbilt smearing, width (Ry)=  0.0010
                       cart. coord. in units 2pi/alat
        k(    1) = (   0.0000000   0.0000000   0.0000000), wk =   0.0246914
        k(    2) = (   0.0000000   0.1283001   0.0000000), wk =   0.1481481
        k(    3) = (   0.0000000   0.2566001   0.0000000), wk =   0.1481481
        k(    4) = (   0.0000000   0.3849002   0.0000000), wk =   0.1481481
        k(    5) = (   0.0000000   0.5132002   0.0000000), wk =   0.1481481
        k(    6) = (   0.1111111   0.1924501   0.0000000), wk =   0.1481481
        k(    7) = (   0.1111111   0.3207501   0.0000000), wk =   0.2962963
        k(    8) = (   0.1111111   0.4490502   0.0000000), wk =   0.2962963
        k(    9) = (   0.1111111   0.5773503   0.0000000), wk =   0.1481481
        k(   10) = (   0.2222222   0.3849002   0.0000000), wk =   0.1481481
        k(   11) = (   0.2222222   0.5132002   0.0000000), wk =   0.2962963
        k(   12) = (   0.3333333   0.5773503   0.0000000), wk =   0.0493827

                       cryst. coord.
        k(    1) = (   0.0000000   0.0000000   0.0000000), wk =   0.0246914
        k(    2) = (   0.0000000   0.1111111   0.0000000), wk =   0.1481481
        k(    3) = (   0.0000000   0.2222222   0.0000000), wk =   0.1481481
        k(    4) = (   0.0000000   0.3333333   0.0000000), wk =   0.1481481
        k(    5) = (   0.0000000   0.4444444   0.0000000), wk =   0.1481481
        k(    6) = (   0.1111111   0.1111111   0.0000000), wk =   0.1481481
        k(    7) = (   0.1111111   0.2222222   0.0000000), wk =   0.2962963
        k(    8) = (   0.1111111   0.3333333   0.0000000), wk =   0.2962963
        k(    9) = (   0.1111111   0.4444444   0.0000000), wk =   0.1481481
        k(   10) = (   0.2222222   0.2222222   0.0000000), wk =   0.1481481
        k(   11) = (   0.2222222   0.3333333   0.0000000), wk =   0.2962963
        k(   12) = (   0.3333333   0.3333333   0.0000000), wk =   0.0493827

     Dense  grid:   514801 G-vectors     FFT dimensions: (  60,  60, 400)

     Dynamical RAM for                 wfc:       3.68 MB

     Dynamical RAM for     wfc (w. buffer):      11.05 MB

     Dynamical RAM for           str. fact:       3.93 MB

     Dynamical RAM for           local pot:       0.00 MB

     Dynamical RAM for          nlocal pot:       7.86 MB

     Dynamical RAM for                qrad:       1.59 MB

     Dynamical RAM for          rho,v,vnew:      14.13 MB

     Dynamical RAM for               rhoin:       4.71 MB

     Dynamical RAM for            rho*nmix:      31.43 MB

     Dynamical RAM for           G-vectors:       8.35 MB

     Dynamical RAM for          h,s,v(r/c):       0.04 MB

     Dynamical RAM for          <psi|beta>:       0.01 MB

     Dynamical RAM for                 psi:       7.37 MB

     Dynamical RAM for                hpsi:       7.37 MB

     Dynamical RAM for                spsi:       7.37 MB

     Dynamical RAM for      wfcinit/wfcrot:       7.86 MB

     Dynamical RAM for           addusdens:      16.37 MB

     Dynamical RAM for          addusforce:      16.37 MB

     Dynamical RAM for         addusstress:      17.18 MB

     Estimated static dynamical RAM per process >      71.24 MB

     Estimated max dynamical RAM per process >     124.82 MB

     Estimated total dynamical RAM >       2.31 GB

     Initial potential from superposition of free atoms

     starting charge      21.9999, renormalised to      22.0000

     negative rho (up, down):  3.354E-04 0.000E+00
     Starting wfcs are   16 randomized atomic wfcs

     total cpu time spent up to now is        6.0 secs

     Self-consistent Calculation

     iteration #  1     ecut=   300.00 Ry     beta= 0.70
     Davidson diagonalization with overlap

---- Real-time Memory Report at c_bands before calling an iterative solver
           121 MiB given to the printing process from OS
             0 MiB allocation reported by mallinfo(arena+hblkhd)
        249543 MiB available memory on the node where the printing process lives
------------------
     ethr =  1.00E-02,  avg # of iterations =  3.6

     Threshold (ethr) on eigenvalues was too large:
     Diagonalizing with lowered threshold

     Davidson diagonalization with overlap

---- Real-time Memory Report at c_bands before calling an iterative solver
           128 MiB given to the printing process from OS
             0 MiB allocation reported by mallinfo(arena+hblkhd)
        249828 MiB available memory on the node where the printing process lives
------------------
     ethr =  9.45E-04,  avg # of iterations =  1.4

     negative rho (up, down):  9.629E-05 0.000E+00

     total cpu time spent up to now is       34.9 secs

     total energy              =    -120.08935537 Ry
     estimated scf accuracy    <       0.20498168 Ry

     iteration #  2     ecut=   300.00 Ry     beta= 0.70
     Davidson diagonalization with overlap

---- Real-time Memory Report at c_bands before calling an iterative solver
           164 MiB given to the printing process from OS
             0 MiB allocation reported by mallinfo(arena+hblkhd)
        250039 MiB available memory on the node where the printing process lives
------------------
     ethr =  9.32E-04,  avg # of iterations =  2.0

     negative rho (up, down):  5.628E-05 0.000E+00

     total cpu time spent up to now is       47.9 secs

     total energy              =    -120.10216176 Ry
     estimated scf accuracy    <       0.10548367 Ry

     iteration #  3     ecut=   300.00 Ry     beta= 0.70
     Davidson diagonalization with overlap

---- Real-time Memory Report at c_bands before calling an iterative solver
           169 MiB given to the printing process from OS
             0 MiB allocation reported by mallinfo(arena+hblkhd)
        249276 MiB available memory on the node where the printing process lives
------------------
     ethr =  4.79E-04,  avg # of iterations =  2.7

     negative rho (up, down):  2.807E-05 0.000E+00

     total cpu time spent up to now is       62.9 secs

     total energy              =    -120.13151221 Ry
     estimated scf accuracy    <       0.01513907 Ry

     iteration #  4     ecut=   300.00 Ry     beta= 0.70
     Davidson diagonalization with overlap

---- Real-time Memory Report at c_bands before calling an iterative solver
           173 MiB given to the printing process from OS
             0 MiB allocation reported by mallinfo(arena+hblkhd)
        248882 MiB available memory on the node where the printing process lives
------------------
     ethr =  6.88E-05,  avg # of iterations =  5.5

     negative rho (up, down):  2.793E-05 0.000E+00

     total cpu time spent up to now is       89.3 secs

     total energy              =    -120.13403947 Ry
     estimated scf accuracy    <       0.00012336 Ry

     iteration #  5     ecut=   300.00 Ry     beta= 0.70
     Davidson diagonalization with overlap

---- Real-time Memory Report at c_bands before calling an iterative solver
           177 MiB given to the printing process from OS
             0 MiB allocation reported by mallinfo(arena+hblkhd)
        249202 MiB available memory on the node where the printing process lives
------------------
     ethr =  5.61E-07,  avg # of iterations =  6.8

     negative rho (up, down):  2.839E-05 0.000E+00

     total cpu time spent up to now is      121.0 secs

     total energy              =    -120.13407506 Ry
     estimated scf accuracy    <       0.00000565 Ry

     iteration #  6     ecut=   300.00 Ry     beta= 0.70
     Davidson diagonalization with overlap

---- Real-time Memory Report at c_bands before calling an iterative solver
           181 MiB given to the printing process from OS
             0 MiB allocation reported by mallinfo(arena+hblkhd)
        249259 MiB available memory on the node where the printing process lives
------------------
     ethr =  2.57E-08,  avg # of iterations =  2.0

     negative rho (up, down):  2.844E-05 0.000E+00

     total cpu time spent up to now is      133.9 secs

     total energy              =    -120.13407585 Ry
     estimated scf accuracy    <       0.00000025 Ry

     iteration #  7     ecut=   300.00 Ry     beta= 0.70
     Davidson diagonalization with overlap

---- Real-time Memory Report at c_bands before calling an iterative solver
           185 MiB given to the printing process from OS
             0 MiB allocation reported by mallinfo(arena+hblkhd)
        249565 MiB available memory on the node where the printing process lives
------------------
     ethr =  1.12E-09,  avg # of iterations =  2.3

     negative rho (up, down):  2.845E-05 0.000E+00

     total cpu time spent up to now is      149.5 secs

     total energy              =    -120.13407593 Ry
     estimated scf accuracy    <       0.00000004 Ry

     iteration #  8     ecut=   300.00 Ry     beta= 0.70
     Davidson diagonalization with overlap

---- Real-time Memory Report at c_bands before calling an iterative solver
           189 MiB given to the printing process from OS
             0 MiB allocation reported by mallinfo(arena+hblkhd)
        249871 MiB available memory on the node where the printing process lives
------------------
     ethr =  1.83E-10,  avg # of iterations =  2.0

     negative rho (up, down):  2.845E-05 0.000E+00

     total cpu time spent up to now is      162.8 secs

     total energy              =    -120.13407594 Ry
     estimated scf accuracy    <          1.2E-10 Ry

     iteration #  9     ecut=   300.00 Ry     beta= 0.70
     Davidson diagonalization with overlap

---- Real-time Memory Report at c_bands before calling an iterative solver
           193 MiB given to the printing process from OS
             0 MiB allocation reported by mallinfo(arena+hblkhd)
        249549 MiB available memory on the node where the printing process lives
------------------
     ethr =  5.38E-13,  avg # of iterations =  4.1

     negative rho (up, down):  2.845E-05 0.000E+00

     total cpu time spent up to now is      182.5 secs

     total energy              =    -120.13407594 Ry
     estimated scf accuracy    <          2.5E-11 Ry

     iteration # 10     ecut=   300.00 Ry     beta= 0.70
     Davidson diagonalization with overlap

---- Real-time Memory Report at c_bands before calling an iterative solver
           197 MiB given to the printing process from OS
             0 MiB allocation reported by mallinfo(arena+hblkhd)
        248810 MiB available memory on the node where the printing process lives
------------------
     ethr =  1.13E-13,  avg # of iterations =  2.0

     negative rho (up, down):  2.845E-05 0.000E+00

     total cpu time spent up to now is      196.0 secs

     total energy              =    -120.13407594 Ry
     estimated scf accuracy    <          1.2E-12 Ry

     iteration # 11     ecut=   300.00 Ry     beta= 0.70
     Davidson diagonalization with overlap

---- Real-time Memory Report at c_bands before calling an iterative solver
           197 MiB given to the printing process from OS
             0 MiB allocation reported by mallinfo(arena+hblkhd)
        248827 MiB available memory on the node where the printing process lives
------------------
     ethr =  1.00E-13,  avg # of iterations =  1.0

     negative rho (up, down):  2.845E-05 0.000E+00

     total cpu time spent up to now is      206.0 secs

     End of self-consistent calculation

          k = 0.0000 0.0000 0.0000 ( 64495 PWs)   bands (ev):

   -29.3983 -28.9024 -20.1884 -12.8243  -9.8424  -8.0996  -8.0996  -6.9220
    -6.9220  -3.9532  -3.9532  -0.8110   3.4088   3.4088   3.5524

     occupation numbers 
     1.0000   1.0000   1.0000   1.0000   1.0000   1.0000   1.0000   1.0000
     1.0000   1.0000   1.0000   0.0000   0.0000   0.0000   0.0000

          k = 0.0000 0.1283 0.0000 ( 64543 PWs)   bands (ev):

   -29.2923 -28.8267 -19.9987 -12.7257  -9.9387  -8.8929  -8.3611  -7.1334
    -6.9671  -4.6908  -4.2205  -0.2280   3.4861   3.9241   4.1917

     occupation numbers 
     1.0000   1.0000   1.0000   1.0000   1.0000   1.0000   1.0000   1.0000
     1.0000   1.0000   1.0000   0.0000   0.0000   0.0000   0.0000

          k = 0.0000 0.2566 0.0000 ( 64463 PWs)   bands (ev):

   -29.0116 -28.6317 -19.4319 -12.5181 -10.8363 -10.0609  -8.9688  -7.6269
    -7.0990  -6.0282  -4.7103   0.6371   3.7094   4.9314   5.3664

     occupation numbers 
     1.0000   1.0000   1.0000   1.0000   1.0000   1.0000   1.0000   1.0000
     1.0000   1.0000   1.0000   0.0000   0.0000   0.0000   0.0000

          k = 0.0000 0.3849 0.0000 ( 64362 PWs)   bands (ev):

   -28.6641 -28.4073 -18.4934 -13.3502 -11.8017 -10.4605  -9.5845  -8.1013
    -7.2609  -7.1935  -5.1011   1.1687   4.1215   5.8510   7.6668

     occupation numbers 
     1.0000   1.0000   1.0000   1.0000   1.0000   1.0000   1.0000   1.0000
     1.0000   1.0000   1.0000   0.0000   0.0000   0.0000   0.0000

          k = 0.0000 0.5132 0.0000 ( 64298 PWs)   bands (ev):

   -28.4068 -28.2715 -17.2293 -15.2465 -11.6313 -10.7449  -9.9512  -8.3904
    -7.8384  -7.3686  -5.3062   1.4259   4.5380   5.1406   8.6120

     occupation numbers 
     1.0000   1.0000   1.0000   1.0000   1.0000   1.0000   1.0000   1.0000
     1.0000   1.0000   1.0000   0.0000   0.0000   0.0000   0.0000

          k = 0.1111 0.1925 0.0000 ( 64477 PWs)   bands (ev):

   -29.0988 -28.6912 -19.6203 -12.5642 -10.1644 -10.0513  -8.9112  -7.3694
    -7.1913  -5.5368  -4.7478   0.5650   3.9652   4.6321   4.7080

     occupation numbers 
     1.0000   1.0000   1.0000   1.0000   1.0000   1.0000   1.0000   1.0000
     1.0000   1.0000   1.0000   0.0000   0.0000   0.0000   0.0000

          k = 0.1111 0.3208 0.0000 ( 64403 PWs)   bands (ev):

   -28.7833 -28.4801 -18.8661 -12.6226 -11.5425 -10.5480  -9.6324  -7.8409
    -7.4896  -6.5319  -5.3036   1.4955   4.4698   5.7925   6.2397

     occupation numbers 
     1.0000   1.0000   1.0000   1.0000   1.0000   1.0000   1.0000   1.0000
     1.0000   1.0000   1.0000   0.0000   0.0000   0.0000   0.0000

          k = 0.1111 0.4491 0.0000 ( 64329 PWs)   bands (ev):

   -28.4767 -28.2987 -17.7478 -14.2287 -11.6900 -10.8168 -10.2345  -8.3217
    -7.7179  -7.2430  -5.6131   2.1640   4.7803   5.6222   7.8925

     occupation numbers 
     1.0000   1.0000   1.0000   1.0000   1.0000   1.0000   1.0000   1.0000
     1.0000   1.0000   1.0000   0.0000   0.0000   0.0000   0.0000

          k = 0.1111 0.5774 0.0000 ( 64308 PWs)   bands (ev):

   -28.3368 -28.2388 -16.6288 -15.6630 -11.6358 -10.7684 -10.5849  -8.5095
    -7.8368  -7.4636  -5.7136   2.4670   4.9992   5.0003   8.2600

     occupation numbers 
     1.0000   1.0000   1.0000   1.0000   1.0000   1.0000   1.0000   1.0000
     1.0000   1.0000   1.0000   0.0000   0.0000   0.0000   0.0000

          k = 0.2222 0.3849 0.0000 ( 64352 PWs)   bands (ev):

   -28.5058 -28.3098 -17.9257 -13.4686 -11.6288 -11.4807 -10.2559  -8.2754
    -7.8147  -6.9055  -6.0347   2.7371   5.8172   6.5549   6.6837

     occupation numbers 
     1.0000   1.0000   1.0000   1.0000   1.0000   1.0000   1.0000   1.0000
     1.0000   1.0000   1.0000   0.0000   0.0000   0.0000   0.0000

          k = 0.2222 0.5132 0.0000 ( 64356 PWs)   bands (ev):

   -28.3007 -28.2128 -16.6692 -14.8656 -12.3423 -11.1696 -10.6665  -8.6638
    -7.7341  -7.3807  -6.3915   3.7599   5.3447   6.4891   7.4546

     occupation numbers 
     1.0000   1.0000   1.0000   1.0000   1.0000   1.0000   1.0000   1.0000
     1.0000   1.0000   1.0000   0.0000   0.0000   0.0000   0.0000

          k = 0.3333 0.5774 0.0000 ( 64428 PWs)   bands (ev):

   -28.2049 -28.2049 -15.5336 -15.5336 -13.1927 -10.9160 -10.9160  -8.8359
    -7.5002  -7.5002  -6.8615   4.8180   4.8180   7.0281   8.4932

     occupation numbers 
     1.0000   1.0000   1.0000   1.0000   1.0000   1.0000   1.0000   1.0000
     1.0000   1.0000   1.0000   0.0000   0.0000   0.0000   0.0000

     the Fermi energy is    -3.2152 ev

!    total energy              =    -120.13407594 Ry
     estimated scf accuracy    <          1.4E-13 Ry
     smearing contrib. (-TS)   =       0.00000000 Ry
     internal energy E=F+TS    =    -120.13407594 Ry

     The total energy is F=E-TS. E is the sum of the following terms:
     one-electron contribution =    -975.19871414 Ry
     hartree contribution      =     493.36086043 Ry
     xc contribution           =     -25.85844853 Ry
     ewald contribution        =     387.56222630 Ry

     convergence has been achieved in  11 iterations

     negative rho (up, down):  2.845E-05 0.000E+00

     Forces acting on atoms (cartesian axes, Ry/au):

     atom    1 type  1   force =     0.00000000    0.00000000   -0.00033546
     atom    2 type  1   force =     0.00000000   -0.00000000    0.00033546
     atom    3 type  2   force =     0.00000000   -0.00000000    0.00001749
     atom    4 type  2   force =     0.00000000    0.00000000   -0.00001749
     The non-local contrib.  to forces
     atom    1 type  1   force =     0.00000000    0.00000000   -0.39800891
     atom    2 type  1   force =    -0.00000000   -0.00000000    0.39800891
     atom    3 type  2   force =     0.00000000   -0.00000000    2.50681193
     atom    4 type  2   force =     0.00000000    0.00000000   -2.50681193
     The ionic contribution  to forces
     atom    1 type  1   force =    -0.00000001    0.00000000   -1.16488099
     atom    2 type  1   force =     0.00000001   -0.00000000    1.16488099
     atom    3 type  2   force =    -0.00000000    0.00000000  -48.74159951
     atom    4 type  2   force =     0.00000000   -0.00000000   48.74159951
     The local contribution  to forces
     atom    1 type  1   force =     0.00000001    0.00000000    1.55938459
     atom    2 type  1   force =     0.00000002   -0.00000001   -1.55938459
     atom    3 type  2   force =     0.00000005    0.00000005   46.23480385
     atom    4 type  2   force =     0.00000021   -0.00000005  -46.23480389
     The core correction contribution to forces
     atom    1 type  1   force =    -0.00000000   -0.00000000    0.00316967
     atom    2 type  1   force =    -0.00000000   -0.00000000   -0.00316967
     atom    3 type  2   force =     0.00000000    0.00000000    0.00000000
     atom    4 type  2   force =     0.00000000    0.00000000    0.00000000
     The Hubbard contrib.    to forces
     atom    1 type  1   force =     0.00000000    0.00000000    0.00000000
     atom    2 type  1   force =     0.00000000    0.00000000    0.00000000
     atom    3 type  2   force =     0.00000000    0.00000000    0.00000000
     atom    4 type  2   force =     0.00000000    0.00000000    0.00000000
     The SCF correction term to forces
     atom    1 type  1   force =    -0.00000000   -0.00000000    0.00000019
     atom    2 type  1   force =     0.00000000    0.00000000   -0.00000019
     atom    3 type  2   force =    -0.00000000    0.00000000    0.00000120
     atom    4 type  2   force =    -0.00000000    0.00000000   -0.00000120

     Total force =     0.000475     Total SCF correction =     0.000002


     Computing stress (Cartesian axis) and pressure


     negative rho (up, down):  2.845E-05 0.000E+00
          total   stress  (Ry/bohr**3)                   (kbar)     P=        0.11
   0.00000108  -0.00000000   0.00000000            0.16       -0.00        0.00
   0.00000000   0.00000108   0.00000000            0.00        0.16        0.00
   0.00000000   0.00000000   0.00000003            0.00        0.00        0.00

     kinetic stress (kbar)   6756.18      0.00      0.00
                                0.00   6756.18      0.00
                                0.00      0.00   6005.40

     local   stress (kbar)-188576.38      0.00     -0.00
                                0.00-188576.38      0.00
                               -0.00      0.00 183501.24

     nonloc. stress (kbar)    872.33     -0.00      0.00
                               -0.00    872.33     -0.00
                                0.00     -0.00    676.97

     hartree stress (kbar)  94250.24      0.00      0.00
                                0.00  94250.24     -0.00
                                0.00     -0.00 -89587.43

     exc-cor stress (kbar)  -1583.33     -0.00      0.00
                               -0.00  -1583.33     -0.00
                                0.00     -0.00  -1573.09

     corecor stress (kbar)    -54.54      0.00     -0.00
                                0.00    -54.54      0.00
                               -0.00      0.00    -53.44

     ewald   stress (kbar)  88335.65     -0.00      0.00
                               -0.00  88335.65     -0.00
                                0.00     -0.00 -98969.63

     hubbard stress (kbar)      0.00      0.00      0.00
                                0.00      0.00      0.00
                                0.00      0.00      0.00

     DFT-D   stress (kbar)      0.00      0.00      0.00
                                0.00      0.00      0.00
                                0.00      0.00      0.00

     XDM     stress (kbar)      0.00      0.00      0.00
                                0.00      0.00      0.00
                                0.00      0.00      0.00

     dft-nl  stress (kbar)      0.00      0.00      0.00
                                0.00      0.00      0.00
                                0.00      0.00      0.00

     TS-vdW  stress (kbar)      0.00      0.00      0.00
                                0.00      0.00      0.00
                                0.00      0.00      0.00

     MDB     stress (kbar)      0.00      0.00      0.00
                                0.00      0.00      0.00
                                0.00      0.00      0.00

     3D-RISM stress (kbar)      0.00      0.00      0.00
                                0.00      0.00      0.00
                                0.00      0.00      0.00


     Writing all to output data dir ../tmp/fgc.save/

     init_run     :      2.53s CPU      4.50s WALL (       1 calls)
     electrons    :    107.83s CPU    200.11s WALL (       1 calls)
     forces       :      1.86s CPU      3.71s WALL (       1 calls)
     stress       :      2.82s CPU      4.92s WALL (       1 calls)

     Called by init_run:
     wfcinit      :      1.29s CPU      2.85s WALL (       1 calls)
     wfcinit:atom :      0.01s CPU      0.00s WALL (       2 calls)
     wfcinit:wfcr :      1.22s CPU      2.77s WALL (       2 calls)
     potinit      :      0.37s CPU      0.43s WALL (       1 calls)
     hinit0       :      0.59s CPU      0.61s WALL (       1 calls)

     Called by electrons:
     c_bands      :     89.50s CPU    168.54s WALL (      12 calls)
     sum_band     :     12.05s CPU     21.42s WALL (      12 calls)
     v_of_rho     :      2.03s CPU      2.13s WALL (      12 calls)
     v_h          :      0.14s CPU      0.15s WALL (      12 calls)
     v_xc         :      2.20s CPU      2.29s WALL (      14 calls)
     newd         :      3.25s CPU      7.08s WALL (      12 calls)
     mix_rho      :      0.34s CPU      0.39s WALL (      12 calls)

     Called by c_bands:
     init_us_2    :      0.22s CPU      0.30s WALL (      54 calls)
     init_us_2:cp :      0.22s CPU      0.29s WALL (      54 calls)
     cegterg      :     69.13s CPU    131.98s WALL (      24 calls)

     Called by sum_band:
     sum_band:wei :      0.11s CPU      0.11s WALL (      12 calls)
     sum_band:loo :      5.76s CPU     10.86s WALL (      12 calls)
     sum_band:buf :      0.02s CPU      0.06s WALL (      24 calls)
     sum_band:ini :      0.11s CPU      0.15s WALL (      24 calls)
     sum_band:cal :      2.90s CPU      5.61s WALL (      24 calls)
     sum_band:bec :      0.00s CPU      0.00s WALL (      24 calls)
     addusdens    :      1.50s CPU      4.22s WALL (      12 calls)
     addusd:skk   :      0.04s CPU      0.12s WALL (      24 calls)
     addusd:dgemm :      0.56s CPU      2.38s WALL (      24 calls)
     addusd:qvan2 :      0.21s CPU      0.41s WALL (      24 calls)

     Called by *egterg:
     cdiaghg      :      6.09s CPU      9.08s WALL (     108 calls)
     cegterg:over :     13.27s CPU     21.20s WALL (      86 calls)
     cegterg:upda :      1.43s CPU      3.09s WALL (      86 calls)
     cegterg:last :      1.43s CPU      2.35s WALL (      50 calls)
     h_psi        :     36.11s CPU     78.48s WALL (     112 calls)
     s_psi        :      0.79s CPU      1.32s WALL (     112 calls)
     g_psi        :      0.03s CPU      0.03s WALL (      86 calls)

     Called by h_psi:
     h_psi:calbec :     12.01s CPU     22.60s WALL (     112 calls)
     vloc_psi     :     21.72s CPU     50.59s WALL (     112 calls)
     add_vuspsi   :      2.34s CPU      5.22s WALL (     112 calls)

     General routines
     calbec       :     16.25s CPU     31.19s WALL (     146 calls)
     fft          :      1.47s CPU      2.09s WALL (     158 calls)
     ffts         :      0.46s CPU      0.48s WALL (      12 calls)
     fftw         :     23.01s CPU     53.53s WALL (    2290 calls)

     Parallel routines

     PWSCF        :   1m56.06s CPU   3m35.52s WALL


   This run was terminated on:   3:24:37  24Feb2024            

=------------------------------------------------------------------------------=
   JOB DONE.
=------------------------------------------------------------------------------=
